ITEM: TIMESTEP
0
ITEM: NUMBER OF ATOMS
81200
ITEM: BOX BOUNDS pp pp pp
1.1758784210055181e-01 2.9818190805392629e+02
1.1033290212656388e-01 2.9953737907204498e+02
0.0000000000000000e+00 4.9031656433928198e+01
ITEM: ATOMS id type x y z
1 3 0.170991 0.149306 2.0683
2 3 1.67268 2.76168 2.05506
3 1 1.64035 1.04688 3.02569
15 3 3.131 0.186328 2.06779
16 3 4.62197 2.75584 2.05352
17 1 4.59161 1.06306 3.04287
29 7 6.11613 0.18122 2.03646
30 3 7.63368 2.78499 2.05408
31 1 7.65994 1.0844 3.03466
43 3 9.1066 0.193196 2.0526
44 3 10.5994 2.75912 2.04893
45 1 10.5931 1.0467 3.02136
57 3 12.0679 0.180329 2.04598
58 3 13.5692 2.74503 2.0482
59 1 13.5731 1.02203 3.00347
71 3 15.0821 0.199796 2.03934
72 3 16.5337 2.78254 2.04225
73 1 16.524 1.08606 3.02891
85 7 18.0387 0.18122 2.03646
86 3 19.527 2.78467 2.04718
87 1 19.559 1.11487 3.06027
99 7 21.0193 0.18122 2.03646
100 7 22.5097 2.76249 2.03646
113 3 24.002 0.270736 2.03041
114 3 25.4751 2.7248 2.05466
127 7 26.9806 0.18122 2.03646
128 3 28.475 2.75117 2.04509
129 1 28.4834 1.06364 3.05081
1401 3 0.159372 5.35271 2.05582
4 1 0.222926 3.65284 3.03388
1415 7 3.13549 5.34375 2.03646
18 1 3.1498 3.5901 3.04321
1429 3 6.13975 5.36641 2.05892
32 1 6.11998 3.62988 2.99611
1443 3 9.10094 5.37829 2.05344
46 1 9.12404 3.65181 3.00703
1457 7 12.0774 5.34375 2.03646
60 1 12.0883 3.57528 3.03261
1471 3 15.0745 5.36709 2.04928
74 1 15.0443 3.64108 3.00339
1485 3 18.0436 5.34838 2.04275
88 1 18.0305 3.62933 3.00728
1499 3 21.0233 5.33203 2.037
102 1 20.9843 3.64545 3.03612
1513 3 23.9828 5.31709 2.02934
116 1 24.0366 3.63195 3.03134
1527 3 26.9617 5.32715 2.02041
130 1 26.9699 3.60717 2.98568
144 1 29.9199 3.65099 3.02082
1402 3 1.64995 7.96693 2.06801
1404 1 0.191778 8.83323 3.05277
1403 1 1.59613 6.26017 3.03688
1416 3 4.6664 7.94949 2.07069
1418 1 3.16156 8.78034 3.03686
1417 1 4.68723 6.24504 3.04366
1430 3 7.62038 7.9542 2.07869
1432 1 6.13829 8.81429 3.05241
1431 1 7.61888 6.22793 3.03189
1444 3 10.5771 7.95236 2.07009
1446 1 9.10327 8.81668 3.04935
1445 1 10.553 6.24927 3.04498
1458 3 13.5928 7.9489 2.06845
1460 1 12.0858 8.77839 3.03463
1459 1 13.6269 6.24503 3.04165
1472 3 16.5581 7.91963 2.05303
1474 1 15.0873 8.80145 3.02703
1473 1 16.5653 6.20645 3.0238
1486 3 19.5189 7.93342 2.03944
1487 1 19.541 6.20959 2.99422
1488 1 18.04 8.74542 3.03855
1502 1 20.9747 8.80527 3.02803
1500 7 22.5097 7.92502 2.03646
1501 1 22.5096 6.15316 3.02376
1514 3 25.4807 7.92116 2.01395
1515 1 25.4709 6.19899 2.97233
1516 1 24.0362 8.80244 3.01111
1528 3 28.4526 7.90369 2.01552
1529 1 28.4408 6.19442 2.99277
1530 1 26.9697 8.73464 2.99636
2801 3 0.199192 10.5335 2.07572
2815 3 3.16902 10.5054 2.08685
2829 3 6.13471 10.5353 2.09207
2843 3 9.10181 10.5409 2.09428
2845 1 10.6024 11.3851 3.05431
2857 3 12.0746 10.5024 2.08286
2871 3 15.035 10.5216 2.06747
2873 1 16.4876 11.4204 3.03577
2885 7 18.0387 10.5063 2.03646
2887 1 19.5798 11.4216 3.01687
2899 3 21.002 10.4959 2.03103
2901 1 22.5039 11.3135 2.99182
2913 3 23.9961 10.4945 2.01646
2915 1 25.431 11.4245 2.97997
2927 7 26.9806 10.5063 2.03646
2929 1 28.5221 11.3381 3.01755
2802 7 1.64517 13.0876 2.03646
2816 3 4.67357 13.1012 2.11255
2830 3 7.59583 13.1154 2.11474
2844 3 10.5788 13.1122 2.10181
2858 7 13.5677 13.0876 2.03646
2872 3 16.5286 13.1279 2.06658
2886 3 19.5227 13.1289 2.04722
2888 1 18.0318 13.9652 3.02636
2902 1 20.9705 14.011 3.0318
2900 7 22.5097 13.0876 2.03646
2914 3 25.4548 13.1343 2.01182
2916 1 24.0166 14.0119 3.01136
2930 1 26.9299 13.9733 2.99492
2928 7 28.471 13.0876 2.03646
4201 7 0.154846 15.6688 2.03646
4215 7 3.13549 15.6688 2.03646
4229 3 6.15048 15.6796 2.11959
4243 3 9.08816 15.6845 2.12554
4257 3 12.0563 15.6846 2.11375
4271 3 15.0645 15.7007 2.09647
4285 3 18.028 15.6987 2.08578
4287 1 19.5115 16.5676 3.05031
4299 3 20.985 15.7161 2.05984
4301 1 22.4963 16.5527 3.0118
4313 3 23.9952 15.7171 2.0394
4315 1 25.4902 16.5727 2.9948
4327 3 26.9565 15.6791 2.02694
4329 1 28.4575 16.484 3.00401
5601 3 0.169501 20.7606 2.07051
4202 3 1.66451 18.229 2.09222
4204 1 0.153497 19.0547 3.04911
5615 3 3.14851 20.7925 2.09343
4216 3 4.66832 18.2252 2.10568
4218 1 3.16188 19.0736 3.05462
5629 3 6.13406 20.8278 2.10599
4230 3 7.62126 18.2249 2.12356
5643 3 9.11659 20.8035 2.1198
4244 3 10.5883 18.2425 2.12225
5657 3 12.0826 20.7885 2.11735
4258 3 13.5742 18.2489 2.12011
5671 3 15.0715 20.8374 2.13818
4272 3 16.5486 18.2811 2.112
5685 3 18.012 20.87 2.13878
4286 3 19.5069 18.2947 2.10046
5699 3 21.0033 20.8607 2.11421
4300 3 22.482 18.2891 2.07818
5713 3 23.9796 20.8725 2.09818
4314 3 25.456 18.304 2.05125
4316 1 23.9749 19.1421 3.04233
4330 1 26.9244 19.1572 3.03546
5727 3 26.9467 20.8695 2.07992
4328 7 28.471 18.2501 2.03646
5602 7 1.64517 23.4126 2.03646
5603 1 1.64283 21.603 3.05846
5616 3 4.66462 23.4055 2.09546
5617 1 4.62789 21.6804 3.05091
5630 3 7.62614 23.3946 2.11344
5644 7 10.5871 23.4126 2.03646
5658 7 13.5677 23.4126 2.03646
5672 3 16.5685 23.4365 2.14882
5686 3 19.5127 23.4342 2.1489
5700 3 22.495 23.4367 2.12899
5714 3 25.4607 23.4519 2.10997
5715 1 25.4724 21.7258 3.06322
5728 7 28.471 23.4126 2.03646
7001 3 0.181943 25.9836 2.07165
7003 1 1.67501 26.8169 3.04911
7015 3 3.1749 25.9692 2.08922
7029 3 6.13231 25.9843 2.1095
7043 7 9.09678 25.9939 2.03646
7057 7 12.0774 25.9939 2.03646
7071 3 15.1111 25.9954 2.14405
7085 3 18.0591 25.9779 2.15896
7099 3 21.0228 26 2.14897
7113 3 24.0003 26.0114 2.14531
7127 3 26.9514 26.0125 2.11267
7002 3 1.67685 28.528 2.07795
7004 1 0.194661 29.3727 3.05074
7016 3 4.64296 28.5342 2.09581
7018 1 3.1523 29.3756 3.05825
7030 3 7.60956 28.5597 2.11892
7044 3 10.6119 28.5771 2.1351
7058 3 13.6063 28.5675 2.14633
7072 3 16.5721 28.5784 2.15356
7086 3 19.5403 28.5671 2.15454
7100 3 22.5125 28.5724 2.15087
7114 3 25.3835 28.5167 2.06975
7128 3 28.5715 28.5082 2.04315
5 2 0.160303 1.90543 4.28289
7 1 0.168466 0.187052 5.53069
8 1 1.6539 2.77003 5.51628
19 2 3.14388 1.90782 4.28823
21 1 3.14925 0.188266 5.52442
22 1 4.6422 2.77306 5.51269
33 2 6.12737 1.90796 4.27273
35 1 6.12929 0.190118 5.49897
36 1 7.61729 2.77279 5.50774
47 2 9.1099 1.91603 4.2807
49 1 9.10531 0.188203 5.51353
50 1 10.5986 2.77113 5.511
61 2 12.0889 1.90253 4.27852
63 1 12.0922 0.187567 5.50701
64 1 13.5836 2.76744 5.50526
75 2 15.067 1.90955 4.27332
77 1 15.0743 0.185744 5.50059
78 1 16.5652 2.76919 5.50847
89 2 18.0545 1.9098 4.27064
91 1 18.0618 0.182819 5.48623
92 1 19.5445 2.76983 5.50505
103 2 21.034 1.9105 4.27664
105 1 21.0452 0.162006 5.5122
101 1 22.5573 0.999628 3.08777
106 1 22.5204 2.75591 5.50322
117 2 24.0035 1.88398 4.28442
119 1 24.0173 0.126273 5.4674
115 1 25.4487 1.04189 3.06838
120 1 25.4953 2.72372 5.48987
131 2 26.9676 1.96893 4.19321
133 5 26.9806 0.18122 5.50412
134 1 28.4354 2.73088 5.48566
147 1 29.9082 0.184766 5.51913
1407 1 0.159212 5.34852 5.51332
6 2 1.66045 4.49826 4.27627
1421 1 3.14635 5.35202 5.49531
20 2 4.63679 4.49549 4.27548
1435 1 6.12879 5.34814 5.51742
34 2 7.61932 4.495 4.2816
1449 1 9.11113 5.348 5.51778
48 2 10.6047 4.49618 4.27519
1463 1 12.0923 5.34885 5.49579
62 2 13.5753 4.49281 4.2726
1477 1 15.0768 5.34466 5.51289
76 2 16.558 4.48926 4.27969
1491 1 18.0594 5.34999 5.50498
90 2 19.5406 4.49121 4.27551
1505 1 21.0486 5.3769 5.48674
104 2 22.5133 4.47991 4.26444
1519 1 23.9834 5.36607 5.47771
118 2 25.4772 4.47257 4.26255
1533 1 26.9578 5.33755 5.47707
132 2 28.453 4.47461 4.26062
1405 2 0.150391 7.0789 4.28373
1408 1 1.65568 7.9317 5.52458
1419 2 3.14698 7.07017 4.2855
1422 1 4.63651 7.92931 5.53269
1433 2 6.13239 7.07913 4.30057
1436 1 7.61768 7.93189 5.53727
1447 2 9.10714 7.081 4.30059
1450 1 10.6049 7.93108 5.53212
1461 2 12.0912 7.06894 4.28665
1464 1 13.5829 7.93016 5.52537
1475 2 15.0787 7.07364 4.29217
1478 1 16.5715 7.92943 5.53233
1489 2 18.056 7.07096 4.2834
1492 1 19.5803 7.93069 5.48984
1503 2 20.9715 7.03329 4.18344
1506 5 22.5097 7.92502 5.50412
1517 2 24.0494 7.02612 4.17019
1520 1 25.4431 7.92386 5.46408
1531 2 26.9586 7.06125 4.24922
1534 1 28.4494 7.9245 5.47641
2803 1 1.68594 11.3301 3.07264
2807 1 0.164961 10.5156 5.52716
1406 2 1.66315 9.65335 4.3065
2817 1 4.64266 11.3776 3.06563
2821 1 3.15196 10.5129 5.55887
1420 2 4.64255 9.65668 4.32223
2831 1 7.61546 11.3919 3.07083
2835 1 6.12492 10.5188 5.57319
1434 2 7.6173 9.66496 4.32571
2849 1 9.10541 10.5193 5.55431
1448 2 10.5987 9.65794 4.31794
2859 1 13.5555 11.3234 3.07391
2863 1 12.0879 10.5104 5.56852
1462 2 13.577 9.64824 4.30812
2877 1 15.0721 10.5089 5.52822
1476 2 16.5635 9.65788 4.28122
2891 1 18.058 10.5083 5.48263
1490 2 19.5372 9.65227 4.25962
2905 1 21.0424 10.4789 5.48109
1504 2 22.5082 9.70163 4.17522
2919 1 23.9806 10.4759 5.46207
1518 2 25.4795 9.64804 4.22911
2933 1 26.9635 10.5063 5.4419
1532 2 28.4568 9.64389 4.23513
2805 2 0.174706 12.2376 4.30754
2804 1 0.152372 13.9297 3.09141
2806 2 1.66193 14.81 4.30674
2808 1 1.6584 13.0965 5.53737
2819 2 3.15932 12.2338 4.32661
2818 1 3.20197 13.9213 3.09978
2820 2 4.57595 14.7713 4.27062
2822 1 4.65592 13.1166 5.57147
2832 1 6.12901 13.9777 3.11028
2833 2 6.12806 12.246 4.34543
2834 2 7.67616 14.7767 4.28662
2836 1 7.597 13.1203 5.57174
2846 1 9.09325 13.9591 3.07858
2860 1 12.0281 13.9858 3.09536
2847 2 9.0992 12.2389 4.33949
2848 2 10.5806 14.8164 4.35545
2850 1 10.5872 13.0878 5.56722
2861 2 12.0815 12.2351 4.3235
2862 2 13.5645 14.8112 4.3289
2864 1 13.5722 13.087 5.5348
2874 1 15.0904 13.9997 3.07406
2875 2 15.0518 12.2406 4.29878
2876 2 16.5518 14.8226 4.31421
2878 1 16.5589 13.0877 5.52702
2889 2 18.0425 12.2342 4.27267
2890 2 19.5258 14.8272 4.29525
2892 1 19.5395 13.0876 5.5079
2903 2 21.0266 12.2371 4.25538
2904 2 22.5033 14.824 4.26461
2906 1 22.5114 13.0839 5.46358
2917 2 23.9864 12.2356 4.23626
2918 2 25.4842 14.8259 4.25061
2920 1 25.4845 13.0831 5.46856
2931 2 26.973 12.2298 4.21843
2932 2 28.4685 14.8093 4.23555
2934 1 28.4614 13.0897 5.44491
4205 2 0.150156 17.3635 4.31155
4207 1 0.131254 15.6607 5.52293
4203 1 1.66615 16.5584 3.10221
4219 2 3.15324 17.3693 4.32068
4221 1 3.16645 15.6584 5.52549
4217 1 4.70487 16.5448 3.11947
4231 1 7.61248 16.5264 3.12445
4233 2 6.13156 17.4617 4.28496
4235 5 6.11613 15.6688 5.50412
4245 1 10.5776 16.5319 3.09912
4247 2 9.09093 17.382 4.36723
4249 1 9.06188 15.6678 5.58224
4259 1 13.5621 16.5238 3.0728
4261 2 12.077 17.383 4.36095
4263 1 12.0781 15.6675 5.59308
4273 1 16.5494 16.5568 3.06644
4275 2 15.0582 17.3958 4.34542
4277 1 15.0596 15.6704 5.55574
4289 2 18.0363 17.4092 4.33639
4291 1 18.0479 15.6735 5.54368
4303 2 21.0128 17.408 4.31326
4305 1 21.0238 15.6765 5.5232
4317 2 23.9943 17.4084 4.28352
4319 1 24.0007 15.675 5.49398
4331 2 26.9848 17.4076 4.26166
4333 1 26.9816 15.6783 5.4788
5607 1 0.146663 20.7973 5.54355
4206 2 1.64737 19.9362 4.31305
4208 1 1.63655 18.2275 5.54145
5621 1 3.14037 20.8077 5.54493
4220 2 4.63361 19.9516 4.32973
4222 1 4.64395 18.214 5.5553
4232 1 6.13792 19.11 3.07327
5635 1 6.11626 20.812 5.56147
4234 2 7.61704 19.9557 4.35334
4236 1 7.59436 18.2154 5.59622
4246 1 9.09993 19.0927 3.09465
5649 1 9.10364 20.8176 5.57821
4248 2 10.5929 19.9569 4.35463
4250 1 10.5821 18.2455 5.58961
4260 1 12.0806 19.0833 3.09773
5663 1 12.0845 20.826 5.58122
4262 2 13.5741 19.9643 4.35961
4264 1 13.5743 18.2466 5.59586
4274 1 15.056 19.1143 3.09186
5677 1 15.0822 20.856 5.58143
4276 2 16.5463 19.9907 4.36276
4278 1 16.5522 18.2592 5.57593
4288 1 18.0277 19.1433 3.08911
5691 1 18.0178 20.864 5.60557
4290 2 19.5178 19.9867 4.36105
4292 1 19.5286 18.2587 5.57774
4302 1 21.0032 19.1363 3.06874
5705 1 21.0159 20.8375 5.59189
4304 2 22.5003 19.9873 4.33266
4306 1 22.5096 18.2567 5.5357
5719 1 24.0036 20.8365 5.56048
4318 2 25.4837 19.9907 4.3093
4320 1 25.4972 18.2563 5.50988
5733 1 27.0178 20.8326 5.53237
4332 2 28.3983 19.9445 4.21994
4334 1 28.4843 18.2846 5.47867
5605 2 0.161237 22.5207 4.28171
5608 1 1.64832 23.3836 5.51498
5619 2 3.13898 22.5288 4.30954
5622 1 4.62772 23.3898 5.57461
5631 1 7.62721 21.6755 3.07475
5633 2 6.12463 22.536 4.3372
5636 1 7.61226 23.4011 5.57375
5645 1 10.6047 21.6293 3.0985
5647 2 9.11071 22.538 4.34464
5650 1 10.6011 23.4018 5.58195
5659 1 13.5575 21.6404 3.09538
5661 2 12.0872 22.548 4.35007
5664 1 13.6117 23.4032 5.56183
5675 2 14.9838 22.5115 4.27958
5673 1 16.5331 21.7252 3.12368
5678 5 16.5484 23.4126 5.50412
5687 1 19.5183 21.7062 3.09718
5689 2 18.0991 22.5217 4.3083
5692 1 19.4956 23.4082 5.59752
5701 1 22.4937 21.7124 3.08345
5703 2 21.0111 22.5622 4.36999
5706 1 22.5108 23.4104 5.59694
5717 2 23.9939 22.563 4.35049
5720 1 25.4985 23.407 5.5772
5731 2 26.9853 22.5543 4.32304
5729 1 28.4126 21.6531 3.10658
5734 1 28.4983 23.3764 5.54006
7007 1 0.163048 25.9733 5.528
5604 1 0.172287 24.3104 3.0776
5606 2 1.65907 25.1078 4.30424
7017 1 4.64236 26.8304 3.07919
5618 1 3.20136 24.272 3.07422
7021 1 3.13683 25.9741 5.55122
5620 2 4.64061 25.1135 4.33654
5632 1 6.14257 24.2637 3.07388
7031 1 7.58158 26.8622 3.10003
7035 1 6.1272 25.9773 5.57101
5634 2 7.62161 25.1194 4.34032
7049 1 9.10742 25.9765 5.56209
5646 1 9.07037 24.2287 3.1297
7045 1 10.6101 26.9029 3.14041
5648 2 10.6 25.1231 4.34485
7059 1 13.6407 26.8605 3.11564
7063 1 12.0934 25.9776 5.57131
5660 1 12.0811 24.2713 3.18163
5662 2 13.589 25.1226 4.35644
7073 1 16.5833 26.861 3.12085
7077 1 15.0852 25.9554 5.59891
5674 1 15.1209 24.3052 3.14369
5676 2 16.5652 25.2083 4.3189
7087 1 19.5379 26.8514 3.12516
5688 1 18.0383 24.2743 3.15147
7091 1 18.0341 25.9626 5.6277
5690 2 19.527 25.1302 4.38974
5702 1 21.01 24.2805 3.11198
7101 1 22.51 26.8562 3.11925
7105 1 21.0273 25.9907 5.6099
5704 2 22.5093 25.1367 4.38001
5716 1 23.9815 24.2899 3.10303
7115 1 25.4885 26.8721 3.11034
5730 1 26.9293 24.3097 3.08973
7119 1 24.012 25.9913 5.622
5718 2 25.4864 25.1357 4.35728
7129 1 28.4604 26.8513 3.06504
7133 1 26.9975 25.9773 5.5723
5732 2 28.4765 25.1205 4.31935
7005 2 0.173355 27.6979 4.30685
7008 1 1.6498 28.5703 5.55195
7019 2 3.14677 27.6989 4.32308
7022 1 4.6289 28.5751 5.55538
7032 1 6.113 29.3833 3.0828
7033 2 6.12464 27.7038 4.34059
7036 1 7.61657 28.5704 5.5857
7046 1 9.10369 29.416 3.08481
7047 2 9.10983 27.7029 4.35133
7050 1 10.5937 28.5643 5.60501
7060 1 12.1062 29.4228 3.10057
7061 2 12.0972 27.7021 4.36106
7064 1 13.5853 28.5553 5.60417
7074 1 15.0819 29.4249 3.1278
7075 2 15.0789 27.7005 4.38329
7078 1 16.5634 28.5591 5.61618
7088 1 18.0591 29.4264 3.13002
7089 2 18.0581 27.7059 4.39717
7092 1 19.5446 28.5677 5.61907
7102 1 21.0264 29.4318 3.11853
7103 2 21.0294 27.7116 4.38939
7106 1 22.5259 28.569 5.63055
7116 1 24.0081 29.412 3.12135
7117 2 24.0091 27.7108 4.38185
7120 1 25.5237 28.5762 5.56127
7131 2 26.9903 27.6177 4.39868
7130 5 26.9806 29.4356 3.092
7134 1 28.4798 28.5724 5.53041
11 1 0.162294 1.93361 8.01438
13 3 0.168211 0.22533 8.99322
9 2 1.65725 1.05798 6.75202
14 3 1.66092 2.77416 8.98038
25 1 3.15048 1.91827 8.01339
27 3 3.15532 0.204014 8.98537
23 2 4.64135 1.05481 6.74361
28 3 4.64359 2.7722 8.97619
39 1 6.13127 1.91335 8.0086
41 3 6.13629 0.20082 8.98398
37 2 7.61849 1.05179 6.74017
42 3 7.62082 2.76485 8.9789
53 1 9.11026 1.91232 8.00913
55 3 9.10947 0.195608 8.97725
51 2 10.6001 1.05245 6.73904
56 3 10.6038 2.76449 8.97349
67 1 12.0933 1.91057 8.00484
69 3 12.0966 0.192367 8.96969
65 2 13.5844 1.05073 6.7334
70 3 13.5859 2.76144 8.97114
81 1 15.0779 1.91095 8.0031
83 3 15.0749 0.191258 8.96651
79 2 16.5649 1.04462 6.72936
84 3 16.5706 2.76705 8.96518
95 1 18.0532 1.89587 8.00116
97 3 18.0392 0.173533 8.96281
93 2 19.5445 1.04256 6.73081
98 3 19.5395 2.76898 8.95446
109 1 20.9796 1.92704 7.94003
111 7 21.0193 0.18122 8.97177
107 2 22.5292 1.03247 6.72103
112 7 22.5097 2.76249 8.97177
123 1 24.0461 1.87377 7.95743
125 3 24.0336 0.172816 8.93106
121 2 25.4326 1.06487 6.76282
126 3 25.5045 2.75951 8.92975
137 1 26.9744 1.93138 7.9299
139 7 26.9806 0.18122 8.97177
135 2 28.4995 1.07903 6.77705
140 3 28.4277 2.77925 8.9373
151 1 29.8867 1.93031 7.95302
1413 3 0.176636 5.33568 8.97553
10 2 0.161526 3.63397 6.74204
12 1 1.66372 4.48538 8.00399
1427 3 3.14766 5.34151 8.97884
24 2 3.14932 3.63185 6.7392
26 1 4.63877 4.49036 8.01032
1441 3 6.12967 5.33709 8.98313
38 2 6.12986 3.63012 6.74314
40 1 7.61996 4.48371 8.01489
1455 3 9.11457 5.32705 8.98481
52 2 9.11034 3.62823 6.74275
54 1 10.6054 4.48356 8.00943
1469 3 12.0957 5.33942 8.97504
66 2 12.092 3.62696 6.73578
68 1 13.5788 4.47786 8.00288
1483 3 15.0671 5.32727 8.97344
80 2 15.0773 3.62706 6.73943
82 1 16.5781 4.4956 8.01648
1497 3 18.0868 5.34565 8.96212
94 2 18.0595 3.62869 6.73633
96 1 19.57 4.48774 7.99259
1511 3 21.0481 5.38878 8.93817
108 2 21.0358 3.62795 6.72375
110 1 22.5226 4.53447 7.96581
1525 3 24.0009 5.39027 8.93098
122 2 24.0011 3.62053 6.71142
124 1 25.4676 4.48353 7.97471
1539 3 26.9532 5.35282 8.93544
136 2 26.962 3.61488 6.70541
138 1 28.4419 4.49409 7.97095
1553 3 29.919 5.36049 8.94405
1411 1 0.19843 7.02952 7.98577
1410 2 0.153727 8.78135 6.75533
1409 2 1.65622 6.20426 6.74129
1414 3 1.64344 7.90242 8.98269
1425 1 3.14335 7.06283 8.01857
1424 2 3.14107 8.78607 6.77078
1423 2 4.63757 6.20618 6.74815
1428 3 4.63478 7.9036 8.99193
1439 1 6.13387 7.0621 8.02964
1438 2 6.12564 8.78511 6.77759
1437 2 7.62006 6.20328 6.75308
1442 3 7.63413 7.89963 8.99784
1453 1 9.11359 7.04448 8.01906
1452 2 9.11094 8.78032 6.77083
1451 2 10.6045 6.20325 6.74703
1456 3 10.5929 7.90467 8.9938
1467 1 12.0916 7.06652 8.02408
1466 2 12.0984 8.78744 6.77411
1465 2 13.5827 6.20136 6.74344
1470 3 13.5987 7.89608 8.98567
1481 1 15.0442 7.02401 7.98863
1480 2 15.0899 8.77874 6.75928
1479 2 16.5751 6.20857 6.74739
1484 7 16.5484 7.92502 8.97177
1495 1 18.1212 7.04068 7.97344
1494 2 18.0647 8.78273 6.73013
1493 2 19.5633 6.21226 6.71531
1498 3 19.5862 7.91371 8.94446
1508 2 20.9668 8.82949 6.77406
1509 1 21.0595 7.08412 7.9353
1507 2 22.5214 6.13853 6.76478
1512 3 22.5294 7.9362 8.92764
1523 1 23.9945 7.0851 7.92698
1522 2 24.0638 8.82664 6.7569
1521 2 25.4724 6.20886 6.69487
1526 3 25.4712 7.92821 8.92356
1537 1 26.9621 7.06804 7.96397
1536 2 26.9629 8.78345 6.68722
1535 2 28.4483 6.20724 6.70655
1540 3 28.4446 7.93229 8.93463
2813 3 0.12668 10.4994 8.98733
2809 2 1.65968 11.3657 6.76827
1412 1 1.58987 9.61448 8.02131
2827 7 3.13549 10.5063 8.97177
2823 2 4.6374 11.3674 6.78887
1426 1 4.6279 9.58277 7.99495
2841 7 6.11613 10.5063 8.97177
2837 2 7.61394 11.3673 6.79409
1440 1 7.65458 9.60489 8.02643
2855 3 9.11333 10.4664 9.01343
2851 2 10.6014 11.3634 6.79602
1454 1 10.57 9.60863 8.01991
2869 7 12.0774 10.5063 8.97177
2865 2 13.5796 11.3623 6.78019
1468 1 13.6542 9.60418 8.01827
2883 3 15.1109 10.4935 8.98953
2879 2 16.5705 11.3675 6.74389
1482 1 16.59 9.69255 7.98192
2897 3 18.0705 10.5149 8.97256
2893 2 19.5494 11.3633 6.71781
1496 1 19.5432 9.6414 7.99406
2911 3 21.0535 10.4905 8.93506
2907 2 22.5165 11.3542 6.69365
1510 1 22.52 9.6344 7.93324
2925 3 23.9935 10.4925 8.92264
2921 2 25.4822 11.3608 6.68334
1524 1 25.4895 9.64642 7.95784
2939 3 26.9707 10.5079 8.93203
2935 2 28.4551 11.3649 6.68672
1538 1 28.453 9.64606 7.96107
2811 1 0.146372 12.1935 7.9982
2810 2 0.165706 13.9454 6.76044
2812 1 1.65778 14.8535 8.00023
2814 7 1.64517 13.0876 8.97177
2825 1 3.15723 12.2167 7.94427
2824 2 3.14719 13.9482 6.76777
2826 1 4.61095 14.8536 7.9939
2828 7 4.62581 13.0876 8.97177
2839 1 6.16673 12.2454 8.02041
2838 2 6.11652 13.8726 6.85843
2840 1 7.56746 14.8232 8.03824
2842 3 7.61974 13.1047 9.00238
2853 1 9.10136 12.1996 8.069
2852 2 9.08333 13.9466 6.79754
2854 1 10.5319 14.7754 8.04179
2856 3 10.5851 13.0786 9.02217
2867 1 12.0915 12.2898 8.03866
2866 2 12.0825 13.9541 6.79914
2868 1 13.6308 14.7863 8.0335
2870 3 13.6004 13.0869 9.01063
2881 1 15.0709 12.2142 8.03116
2880 2 15.0722 13.9398 6.76991
2882 1 16.5789 14.7781 8.02844
2884 3 16.5758 13.0569 8.98716
2895 1 18.069 12.2281 8.00297
2894 2 18.059 13.9443 6.75338
2896 1 19.5564 14.8106 8.03002
2898 3 19.5651 13.0756 8.96678
2909 1 21.0384 12.2146 7.97966
2908 2 21.0337 13.9425 6.73001
2910 1 22.5344 14.7843 7.98979
2912 3 22.5301 13.0627 8.94903
2923 1 24.0062 12.2117 7.95929
2922 2 24.0058 13.9386 6.70548
2924 1 25.5011 14.7907 7.97465
2926 3 25.4911 13.0681 8.93272
2937 1 26.9743 12.2181 7.95287
2936 2 26.9771 13.9425 6.69398
2938 1 28.4572 14.7944 7.96276
2940 3 28.4509 13.0791 8.93354
4211 1 0.124783 17.3831 8.03206
4213 3 0.158211 15.6548 8.97911
4209 2 1.63991 16.5161 6.75209
4225 1 3.12345 17.3893 8.02522
4227 3 3.1359 15.6781 8.99439
4223 2 4.55647 16.5576 6.829
4239 1 6.06062 17.3504 7.99796
4241 3 6.07437 15.672 9.00551
4237 2 7.67478 16.5681 6.87538
4253 1 9.1373 17.352 8.06756
4255 3 9.06881 15.6373 9.02279
4251 2 10.5845 16.5197 6.81277
4267 1 12.0322 17.4151 8.02561
4269 7 12.0774 15.6688 8.97177
4265 2 13.5704 16.5219 6.81204
4281 1 15.0918 17.3259 8.04423
4283 3 15.1055 15.6237 9.02099
4279 2 16.558 16.5174 6.7874
4295 1 18.0138 17.3538 8.0408
4297 3 18.0558 15.6429 9.00256
4293 2 19.543 16.5319 6.78269
4309 1 21.0905 17.3568 8.02352
4311 3 21.0681 15.6446 8.98347
4307 2 22.5259 16.5223 6.74734
4323 1 24.0369 17.3606 8.0054
4325 3 24.0218 15.6375 8.9622
4321 2 25.5028 16.5232 6.7217
4337 1 27.0004 17.3782 7.98578
4339 3 26.9827 15.6558 8.94491
4335 2 28.4696 16.5311 6.70571
5613 7 0.154846 20.8314 8.97177
4210 2 0.135589 19.0849 6.75552
4212 1 1.67119 19.919 8.00629
4214 3 1.6277 18.2253 8.99486
5627 3 3.11776 20.7906 9.00245
4224 2 3.13765 19.0937 6.76963
4226 1 4.63757 19.9587 8.06202
4228 3 4.61706 18.2241 9.00099
5641 3 6.12796 20.8237 9.02348
4238 2 6.11782 19.089 6.79447
4240 1 7.60867 19.9957 8.04021
4242 7 7.60645 18.2501 8.97177
5655 3 9.07692 20.8344 9.03368
4252 2 9.09184 19.1003 6.81573
4254 1 10.5888 19.9788 8.09749
4256 3 10.5879 18.2468 9.03932
5669 3 12.1005 20.8369 9.03389
4266 2 12.08 19.1073 6.81741
4268 1 13.5767 20.0053 8.04742
4270 7 13.5677 18.2501 8.97177
5683 3 15.0584 20.8318 9.03021
4280 2 15.0564 19.0973 6.81326
4282 1 16.5069 19.9077 8.07836
4284 3 16.5439 18.1909 9.03451
5697 7 18.0387 20.8314 8.97177
4294 2 18.0428 19.1088 6.80873
4296 1 19.5296 19.9612 7.97727
4298 7 19.529 18.2501 8.97177
5711 7 21.0193 20.8314 8.97177
4308 2 21.0258 19.1065 6.79692
4310 1 22.5651 19.9177 8.0402
4312 3 22.5662 18.2055 9.00167
5725 3 24.0317 20.7915 9.0093
4322 2 24.0136 19.0998 6.76393
4324 1 25.5099 19.9452 8.02029
4326 3 25.5205 18.2215 8.9762
5739 3 27.0039 20.79 8.98496
4336 2 26.9968 19.1082 6.73101
4338 1 28.4842 19.9694 7.97286
4340 3 28.4823 18.2537 8.94601
5611 1 0.135473 22.5828 7.98498
5609 2 1.6298 21.6614 6.76675
5614 3 1.60996 23.3917 8.99295
5625 1 3.0629 22.493 8.02508
5623 2 4.62124 21.6745 6.79341
5628 7 4.62581 23.4126 8.97177
5639 1 6.14456 22.5176 8.03613
5637 2 7.60838 21.6785 6.7988
5642 3 7.5998 23.3814 9.02725
5653 1 9.06514 22.5268 8.04336
5651 2 10.5967 21.6891 6.81277
5656 7 10.5871 23.4126 8.97177
5667 1 12.1375 22.5265 8.04057
5665 2 13.5885 21.687 6.79754
5670 3 13.6119 23.3691 9.02373
5681 1 15.0983 22.5333 8.03616
5679 2 16.5601 21.5907 6.89574
5684 3 16.548 23.4074 9.03809
5695 1 18.0429 22.61 8.0504
5693 2 19.5204 21.6915 6.81914
5698 3 19.533 23.4109 9.05001
5709 1 21.0109 22.5764 8.06561
5707 2 22.5082 21.6803 6.81728
5712 3 22.497 23.4026 9.04435
5723 1 23.9921 22.5371 8.08967
5721 2 25.4984 21.6775 6.78145
5726 3 25.5147 23.3687 9.02612
5737 1 26.9586 22.5 8.02294
5735 2 28.4112 21.7226 6.82586
5740 7 28.471 23.4126 8.97177
7013 3 0.14716 25.9554 8.97884
5610 2 0.155499 24.2508 6.74393
7009 2 1.64552 26.8381 6.77114
5612 1 1.66019 25.1147 8.03788
7027 3 3.1397 25.9931 9.00424
5624 2 3.13566 24.2461 6.78102
7023 2 4.62469 26.8439 6.78597
5626 1 4.6207 25.1575 8.02817
7041 3 6.09377 25.9908 9.01852
5638 2 6.11313 24.2556 6.80245
7037 2 7.60835 26.8426 6.80421
5640 1 7.59785 25.1159 8.0858
7055 3 9.09636 25.9841 9.02814
5652 2 9.10534 24.2611 6.80826
7051 2 10.5928 26.8443 6.81134
5654 1 10.5925 25.1769 8.04946
7069 3 12.0848 25.9748 9.04569
5666 2 12.0873 24.2554 6.80241
7065 2 13.5853 26.8316 6.81809
5668 1 13.5628 25.0995 8.07969
5680 2 15.0007 24.2915 6.8685
7083 3 15.057 25.9478 9.04339
7079 2 16.5634 26.8311 6.83824
5682 1 16.501 25.086 8.03148
7097 7 18.0387 25.9939 8.97177
5694 2 18.1107 24.3109 6.89412
7093 2 19.5349 26.8443 6.84437
5696 1 19.5685 25.1088 8.07383
7111 3 21.0269 25.9561 9.07067
5708 2 21.0222 24.2642 6.82702
7107 2 22.533 26.8503 6.85298
5710 1 22.4928 25.11 8.0789
7125 7 24 25.9939 8.97177
5722 2 24.0149 24.268 6.8325
7121 2 25.5172 26.8499 6.81914
5724 1 25.5802 25.0825 8.06902
7139 3 27.0413 25.989 9.01861
5736 2 27.013 24.2518 6.794
7135 2 28.4991 26.8528 6.77875
5738 1 28.5127 25.1676 8.01669
7011 1 0.149009 27.6315 7.97675
7010 2 0.152551 29.4297 6.76394
7014 7 1.64517 28.5752 8.97177
7025 1 3.1594 27.6885 8.01813
7024 2 3.12418 29.4332 6.77447
7028 3 4.60933 28.5648 9.00511
7039 1 6.07299 27.6889 8.03704
7038 2 6.11044 29.434 6.79032
7042 7 7.60645 28.5752 8.97177
7053 1 9.08684 27.6548 8.0201
7052 2 9.09467 29.4259 6.82721
7056 7 10.5871 28.5752 8.97177
7067 1 12.1278 27.6694 8.06148
7066 2 12.0801 29.4112 6.8375
7070 3 13.5781 28.5324 9.05933
7081 1 15.0819 27.6846 8.10808
7080 2 15.0715 29.4182 6.8487
7084 3 16.5633 28.5613 9.06906
7095 1 18.0596 27.7587 8.08842
7094 2 18.059 29.4337 6.85311
7098 3 19.5565 28.5639 9.06956
7109 1 21.0035 27.6621 8.09806
7108 2 21.0522 29.4271 6.8513
7112 7 22.5097 28.5752 8.97177
7123 1 24.0964 27.7472 8.0407
7122 2 24.0318 29.4337 6.82587
7126 3 25.5507 28.5905 9.03341
7137 1 27.0162 27.7092 8.05648
7136 2 27.0078 29.4305 6.78369
7140 3 28.5093 28.5715 9.0118
8401 7 0.154846 31.1564 2.03646
8415 7 3.13549 31.1564 2.03646
8429 7 6.11613 31.1564 2.03646
8443 3 9.1668 31.1435 2.14064
8457 3 12.1095 31.1516 2.15139
8471 3 15.0655 31.1411 2.16378
8485 3 18.0415 31.1343 2.15088
8499 3 21.0178 31.1454 2.14401
8513 3 24.0088 31.1104 2.12816
8527 3 26.978 31.1801 2.07651
8402 3 1.6673 33.7474 2.06582
8404 1 0.174603 34.6277 3.00591
8416 3 4.63307 33.7499 2.07765
8418 1 3.1463 34.5653 3.06012
8430 7 7.60645 33.7377 2.03646
8432 1 6.08618 34.6242 3.06313
8444 3 10.5801 33.6841 2.10544
8458 3 13.625 33.6649 2.1218
8472 7 16.5484 33.7377 2.03646
8486 3 19.5427 33.7408 2.13507
8500 3 22.5109 33.7153 2.12264
8514 7 25.4903 33.7377 2.03646
8528 3 28.4881 33.6798 2.09717
9801 3 0.179328 36.3589 2.06208
9802 3 1.71879 38.8654 2.01893
9815 7 3.13549 36.319 2.03646
9816 3 4.64253 38.9145 2.0673
9817 1 4.68816 37.2165 3.05014
9829 3 6.13148 36.3181 2.07145
9830 3 7.63912 38.8521 2.06508
9831 1 7.6455 37.1354 3.03102
9843 3 9.15357 36.2708 2.09636
9844 3 10.6115 38.8209 2.08125
9857 3 12.097 36.389 2.05399
9858 3 13.5726 38.8408 2.09807
9871 7 15.0581 36.319 2.03646
9872 3 16.5824 38.8734 2.10678
9885 3 18.0769 36.3187 2.11898
9886 3 19.5481 38.8905 2.11402
9899 3 21.0238 36.3195 2.12071
9900 3 22.5052 38.8956 2.10881
9913 7 24 36.319 2.03646
9914 3 25.4776 38.8838 2.09527
9927 7 26.9806 36.319 2.03646
9928 7 28.471 38.9002 2.03646
11201 3 0.179907 41.5313 2.02142
11215 3 3.12563 41.4615 2.04528
9818 1 3.13436 39.7522 3.02553
11229 3 6.11724 41.4788 2.03942
9832 1 6.15704 39.7582 3.00207
11243 7 9.09678 41.4815 2.03646
9846 1 9.1289 39.6817 3.03696
11257 7 12.0774 41.4815 2.03646
9860 1 12.0824 39.6866 3.05195
11271 3 15.0982 41.4539 2.08065
9874 1 15.0658 39.7274 3.03581
11285 3 18.0716 41.4548 2.08853
11299 3 21.038 41.4639 2.09346
11313 3 23.9972 41.4726 2.09665
11327 7 26.9806 41.4815 2.03646
11202 3 1.66342 44.048 2.04734
11203 1 1.64962 42.3307 3.01971
11204 1 0.208116 44.9466 3.01118
11216 3 4.62704 44.0327 2.02974
11218 1 3.15377 44.9265 2.98852
11217 1 4.61939 42.3206 3.00316
11230 3 7.57909 44.0417 2.02309
11232 1 6.105 44.8666 3.01513
11231 1 7.58148 42.3494 3.01447
11246 1 9.04671 44.9135 2.99527
11244 7 10.5871 44.0628 2.03646
11258 3 13.6326 44.0368 2.04524
11260 1 12.1621 44.8999 3.01845
11259 1 13.6374 42.3455 3.04223
11272 3 16.5871 44.0247 2.06328
11274 1 15.1045 44.8972 3.02554
11273 1 16.5814 42.3167 3.04736
11286 3 19.5616 44.0287 2.06758
11288 1 18.0721 44.8916 3.02658
11287 1 19.5512 42.3247 3.05795
11300 3 22.5327 44.0388 2.08096
11302 1 21.0402 44.9076 3.03043
11314 3 25.4939 44.0464 2.07604
11316 1 24.0147 44.9138 3.04307
11328 3 28.5006 44.0572 2.07281
11330 1 26.9954 44.8973 3.03131
11329 1 28.5395 42.3525 3.04577
12601 3 0.171361 46.6464 2.02983
12603 1 1.64274 47.5183 3.00539
12615 3 3.11937 46.6518 2.03238
12617 1 4.57777 47.5207 3.01596
12629 7 6.11613 46.644 2.03646
12631 1 7.67666 47.5154 3.00418
12643 3 9.11535 46.6146 2.01977
12645 1 10.6241 47.4052 2.99451
12657 3 12.1252 46.5904 2.02492
12659 1 13.6015 47.4851 2.97562
12671 3 15.0939 46.5997 2.03616
12673 1 16.582 47.433 3.00739
12685 3 18.0667 46.5937 2.03623
12687 1 19.5447 47.486 2.9899
12699 3 21.0469 46.6189 2.05187
12701 1 22.5391 47.4786 3.01231
12713 3 24.0349 46.6209 2.05834
12715 1 25.5167 47.4924 3.02388
12727 3 27.005 46.6199 2.07109
12729 1 28.4809 47.5019 3.0356
12602 3 1.6532 49.2316 2.03032
12604 1 0.160135 50.0853 2.99246
12616 3 4.60909 49.2099 2.02141
12618 1 3.14122 50.1026 2.9868
12630 3 7.61062 49.2062 2.01252
12632 1 6.11431 50.0102 2.99546
12644 7 10.5871 49.2253 2.03646
12646 1 9.0608 50.0843 2.99873
12658 3 13.5963 49.2042 2.01132
12660 1 12.145 50.0923 2.98697
12672 7 16.5484 49.2253 2.03646
12674 1 15.0426 50.0393 3.01955
12686 3 19.5799 49.202 2.02114
12688 1 18.1283 50.118 2.97661
12700 3 22.5595 49.1881 2.03555
12702 1 21.0679 50.0168 3.00484
12714 3 25.5444 49.2139 2.06304
12716 1 24.0373 50.0723 2.99875
12728 3 28.4886 49.2203 2.06733
12730 1 27.0142 50.0955 3.03737
14001 3 0.163485 51.8015 2.02202
14003 1 1.63807 52.6733 2.99689
14015 3 3.12372 51.8235 2.02297
14017 1 4.58598 52.701 2.99505
14029 7 6.11613 51.8066 2.03646
14031 1 7.67706 52.6376 3.00527
14043 3 9.10383 51.7677 1.99704
14045 1 10.5949 52.5951 2.96702
14057 3 12.0987 51.7873 1.99906
14059 1 13.5432 52.6909 2.97362
14071 7 15.0581 51.8066 2.03646
14073 1 16.6187 52.6732 2.9815
14085 3 18.0941 51.825 2.00467
14087 1 19.5458 52.6879 2.99754
14099 7 21.0193 51.8066 2.03646
14101 1 22.612 52.625 3.01965
14113 3 24.0952 51.8007 2.05517
14115 1 25.5555 52.6713 3.0524
14127 3 26.9268 51.7533 2.01445
15401 3 0.160127 56.9612 2.00863
14002 3 1.6373 54.3854 2.01999
14004 1 0.153908 55.2499 2.9869