ITEM: TIMESTEP
0
ITEM: NUMBER OF ATOMS
81200
ITEM: BOX BOUNDS pp pp pp
6.5820007976196467e-03 2.9829291389523081e+02
6.9519336043507554e-04 2.9964701678080883e+02
0.0000000000000000e+00 4.9031656433928198e+01
ITEM: ATOMS id type x y z
1 3 0.073039 0.078167 2.05088
2 3 1.57152 2.6603 2.06682
3 1 1.54161 0.945294 3.03648
15 3 3.03345 0.0733855 2.09049
16 3 4.52135 2.64127 2.0775
29 7 6.00959 0.0716338 2.03646
30 3 7.52859 2.66557 2.08266
43 3 9.00111 0.0700852 2.08999
44 3 10.4885 2.63658 2.07623
45 1 10.4872 0.927693 3.05532
57 3 11.9599 0.0536805 2.08349
58 3 13.46 2.62053 2.07531
59 1 13.4627 0.901814 3.03865
71 3 14.9698 0.075489 2.07537
72 3 16.4118 2.65445 2.06677
85 7 17.941 0.0716338 2.03646
86 3 19.3919 2.65676 2.04892
99 7 20.9239 0.0716338 2.03646
100 7 22.4153 2.65479 2.03646
113 3 23.8893 0.218235 2.00274
114 3 25.3803 2.67825 1.98727
115 1 25.3494 1.0235 2.99679
127 7 26.8896 0.0716338 2.03646
128 3 28.3786 2.65706 2.02224
129 1 28.3849 0.959017 3.0106
1401 3 0.0526819 5.2461 2.06569
4 1 0.118073 3.54681 3.04466
1415 7 3.02673 5.23795 2.03646
18 1 3.0483 3.48215 3.06068
1429 3 6.03473 5.25167 2.08106
32 1 6.01686 3.51696 3.0218
1443 3 8.99208 5.26369 2.07606
46 1 9.01732 3.53854 3.03228
1457 7 11.9753 5.23795 2.03646
60 1 11.9789 3.458 3.05286
1471 3 14.9532 5.2434 2.06682
74 1 14.9305 3.52292 3.031
1485 3 17.9023 5.21568 2.03505
88 1 17.909 3.50903 3.02315
102 1 20.8266 3.51323 3.02834
1499 3 20.9349 5.23976 2.10673
1513 3 23.9046 5.21956 2.00706
116 1 23.9664 3.52943 2.99945
1527 3 26.8712 5.23886 2.00404
130 1 26.8747 3.51579 2.96273
1541 3 29.8313 5.24257 2.01495
144 1 29.8266 3.546 3.00282
1402 3 1.54087 7.86178 2.08179
1404 1 0.0826797 8.73257 3.0633
1403 1 1.4873 6.15406 3.04904
1416 3 4.56511 7.83626 2.08571
1418 1 3.05844 8.66757 3.04796
1417 1 4.58146 6.13358 3.06162
1430 3 7.51568 7.84163 2.09824
1431 1 7.51173 6.11667 3.05393
1444 3 10.4689 7.83935 2.09108
1458 3 13.4771 7.83206 2.0852
1460 1 11.9763 8.66688 3.05581
1459 1 13.5132 6.13014 3.06223
1472 3 16.4274 7.79201 2.05012
1474 1 14.9735 8.6881 3.03732
1473 1 16.4445 6.08706 3.03552
1488 1 17.887 8.60763 3.02959
1486 3 19.4325 7.83237 2.10579
1487 1 19.3782 6.06922 2.98132
1500 7 22.4153 7.82111 2.03646
1502 1 20.9181 8.74958 2.9989
1501 1 22.4721 6.08358 2.98469
1514 3 25.3862 7.82514 2.00384
1515 1 25.3823 6.10406 2.96434
1516 1 23.9406 8.71197 2.9956
1528 3 28.3612 7.80321 2.0071
1529 1 28.349 6.09548 2.98701
1530 1 26.8775 8.63723 2.98394
2801 3 0.084405 10.4475 2.11212
2803 1 1.62921 11.2014 3.0516
2815 3 3.08947 10.3805 2.07724
2829 3 6.03557 10.4226 2.10578
2843 3 8.9964 10.4304 2.11198
2857 3 11.9661 10.3889 2.10004
2871 3 14.9276 10.4101 2.0801
2873 1 16.3827 11.3135 3.04105
2885 7 17.941 10.4043 2.03646
2887 1 19.4768 11.3882 2.97453
2899 3 20.8961 10.4222 2.02416
2901 1 22.405 11.2276 2.98572
2913 3 23.8948 10.4076 2.0067
2915 1 25.3337 11.3286 2.97217
2927 7 26.8896 10.4043 2.03646
2929 1 28.4297 11.2354 3.01021
2802 7 1.5353 12.9874 2.03646
2816 3 4.56399 12.9932 2.12571
2830 3 7.48754 13.0075 2.13077
2844 3 10.4705 13.0046 2.11657
2858 7 13.4668 12.9874 2.03646
2872 3 16.4254 13.0218 2.07243
2886 3 19.424 13.0747 2.01901
2888 1 17.9277 13.8727 3.02236
2902 1 20.8724 13.9267 3.02808
2900 7 22.4153 12.9874 2.03646
2914 3 25.3568 13.0392 2.00544
2916 1 23.92 13.9172 3.00662
2930 1 26.8349 13.8736 2.98783
2928 7 28.3811 12.9874 2.03646
4201 7 0.0438679 15.5706 2.03646
4215 7 3.02673 15.5706 2.03646
4229 3 6.03592 15.5699 2.1312
4243 3 8.97764 15.5809 2.14179
4257 3 11.9458 15.5816 2.12506
4271 3 14.9636 15.5946 2.09931
4285 3 17.9249 15.6072 2.08435
4287 1 19.4092 16.4739 3.05
4299 3 20.8843 15.6305 2.05519
4301 1 22.3991 16.4591 3.0081
4313 3 23.8968 15.6224 2.03471
4315 1 25.3948 16.4755 2.98752
4327 3 26.8604 15.58 2.02045
4329 1 28.365 16.3827 2.9939
5601 3 0.0569881 20.6636 2.07985
4202 3 1.54722 18.1266 2.09897
4204 1 0.0395054 18.957 3.05724
5615 3 3.03675 20.6948 2.10387
4216 3 4.55179 18.1186 2.11287
4218 1 3.04597 18.9719 3.05832
5629 3 6.02408 20.728 2.11837
4230 3 7.4837 18.1042 2.11348
5643 3 9.0177 20.6977 2.14972
4244 3 10.4776 18.1479 2.15063
5657 3 11.9707 20.6858 2.13481
4258 3 13.4928 18.1327 2.10197
5671 3 14.9687 20.7381 2.13918
4272 3 16.4491 18.1798 2.11143
5685 3 17.9091 20.7723 2.13757
4286 3 19.4043 18.1993 2.09764
5699 3 20.899 20.7639 2.10957
4300 3 22.3804 18.1943 2.0726
5713 3 23.8745 20.7735 2.0899
4314 3 25.3557 18.2062 2.04296
4316 1 23.8755 19.0441 3.03569
5727 3 26.8457 20.772 2.06743
4330 1 26.8274 19.0594 3.02237
4328 7 28.3811 18.1537 2.03646
5602 7 1.5353 23.3201 2.03646
5616 3 4.55254 23.3037 2.10803
5617 1 4.51718 21.5787 3.0638
5630 3 7.51424 23.2944 2.12268
5644 7 10.4839 23.3201 2.03646
5645 1 10.5025 21.6027 3.05619
5658 7 13.4668 23.3201 2.03646
5672 3 16.4654 23.3383 2.14736
5686 3 19.4083 23.3375 2.14669
5700 3 22.387 23.3378 2.12231
5714 3 25.3471 23.3468 2.09557
5715 1 25.37 21.6238 3.05288
5728 7 28.3811 23.3201 2.03646
7001 3 0.0709455 25.8839 2.07983
7003 1 1.56412 26.7179 3.05649
7015 3 3.06388 25.8665 2.09981
7029 3 6.02095 25.8856 2.11747
7043 7 8.99246 25.9032 2.03646
7057 7 11.9753 25.9032 2.03646
7071 3 15.007 25.9005 2.14161
7085 3 17.9543 25.8809 2.15733
7099 3 20.9157 25.9031 2.14434
7113 3 23.8826 25.9084 2.13251
7127 3 26.8028 25.8886 2.06703
7129 1 28.293 26.7189 3.00845
7002 3 1.56643 28.4287 2.08449
7004 1 0.0839175 29.2748 3.05561
7016 3 4.53247 28.4363 2.10279
7018 1 3.04133 29.2784 3.06379
7030 3 7.4978 28.4642 2.12511
7044 3 10.5024 28.4835 2.13759
7058 3 13.5002 28.475 2.14508
7072 3 16.468 28.4847 2.15232
7086 3 19.4354 28.4729 2.15223
7100 3 22.4062 28.4776 2.14538
7114 3 25.272 28.4146 2.05452
7128 3 28.4909 28.4186 2.07783
5 2 0.0518459 1.7916 4.29652
7 1 0.0533556 0.111165 5.50748
8 1 1.54377 2.66289 5.53033
17 1 4.49116 0.949855 3.06955
19 2 3.03911 1.79946 4.30672
21 1 3.03643 0.0768792 5.54293
22 1 4.53259 2.66279 5.53522
31 1 7.5567 0.968207 3.06902
33 2 6.02207 1.79488 4.30063
35 1 6.02139 0.075669 5.53087
36 1 7.50893 2.66417 5.53721
47 2 9.01128 1.80764 4.31864
49 1 8.99985 0.0755687 5.55117
50 1 10.4656 2.64835 5.51366
61 2 11.9809 1.78363 4.3019
63 1 11.9848 0.0736261 5.54561
64 1 13.5008 2.64186 5.5084
73 1 16.4093 0.964858 3.06493
75 2 14.9497 1.79756 4.31212
77 1 14.9659 0.0696416 5.54031
78 1 16.4592 2.65636 5.5375
89 2 17.9426 1.79121 4.29412
91 1 17.9588 0.0648517 5.51534
87 1 19.442 0.995866 3.07689
92 1 19.437 2.65786 5.52186
103 2 20.9212 1.80081 4.2879
105 1 20.9443 0.0552169 5.52122
101 1 22.4482 0.906136 3.09307
106 1 22.4176 2.62944 5.53165
117 2 23.9004 1.7973 4.27405
119 1 23.8836 0.0343316 5.48841
120 1 25.3959 2.61874 5.47473
131 2 26.8641 1.8715 4.15865
133 5 26.8896 0.0716338 5.50412
134 1 28.3376 2.61616 5.45904
147 1 29.803 0.0799996 5.45608
1407 1 0.0462134 5.24192 5.52185
6 2 1.55192 4.39134 4.28932
1421 1 3.03505 5.24488 5.51093
20 2 4.5298 4.38557 4.29565
1435 1 6.01815 5.24067 5.53875
34 2 7.51117 4.38553 4.30665
1449 1 9.00058 5.24105 5.54277
48 2 10.492 4.38739 4.29071
1463 1 11.9834 5.26718 5.49112
62 2 13.469 4.3817 4.28794
1477 1 14.9705 5.23572 5.53515
76 2 16.4543 4.37965 4.30862
1491 1 17.9282 5.22621 5.49882
90 2 19.4147 4.37054 4.28395
1505 1 20.9441 5.24219 5.53494
104 6 22.4153 4.3769 4.27785
1519 1 23.9037 5.27857 5.50013
118 2 25.3869 4.37282 4.25263
1533 1 26.8635 5.23088 5.46907
132 2 28.3684 4.37305 4.25223
1547 1 29.8246 5.20787 5.45221
1405 2 0.0389354 6.97345 4.29182
1408 1 1.54463 7.82663 5.53379
1419 2 3.03902 6.9619 4.29928
1422 1 4.52641 7.82307 5.54868
1432 1 6.03368 8.70375 3.07003
1433 2 6.0243 6.97059 4.31972
1436 1 7.50842 7.82636 5.55715
1446 1 8.99649 8.70727 3.06924
1445 1 10.4432 6.13674 3.06708
1447 2 8.998 6.97203 4.32241
1450 1 10.4962 7.82327 5.55411
1461 2 11.982 6.94898 4.31369
1464 1 13.4771 7.82097 5.54459
1475 2 14.968 6.96162 4.30877
1478 1 16.4657 7.81994 5.54515
1489 2 17.9321 6.95129 4.29022
1492 1 19.4566 7.84024 5.53822
1503 6 20.9239 6.96006 4.27785
1506 5 22.4153 7.82111 5.50412
1517 2 23.966 6.94265 4.17199
1520 1 25.324 7.80444 5.42249
1531 2 26.867 6.95828 4.23603
1534 1 28.3802 7.80735 5.4516
2807 1 0.0529841 10.3842 5.55551
1406 2 1.56171 9.54262 4.31562
2817 1 4.54218 11.267 3.07491
2821 1 3.0426 10.407 5.57091
1420 2 4.53613 9.54832 4.33656
2831 1 7.51117 11.2844 3.08743
2835 1 6.01633 10.4142 5.58825
1434 2 7.51061 9.55792 4.3434
2845 1 10.4966 11.2778 3.06972
2849 1 8.99952 10.4151 5.57136
1448 2 10.492 9.55018 4.33632
2859 1 13.4485 11.2141 3.08529
2863 1 11.9835 10.4053 5.58346
1462 2 13.4701 9.53882 4.32227
2877 1 14.9714 10.4024 5.53595
1476 2 16.4527 9.54733 4.29177
2891 1 17.942 10.411 5.50593
1490 6 19.4325 9.54321 4.27785
2905 1 20.9645 10.3929 5.50393
1504 2 22.419 9.61335 4.16976
2919 1 23.8822 10.3788 5.45623
1518 2 25.3809 9.55427 4.21013
2933 1 26.8685 10.4384 5.40483
1532 2 28.3657 9.54485 4.22271
2805 6 0.0438679 12.1264 4.27785
2806 2 1.54816 14.7099 4.31935
2808 1 1.56627 13.0041 5.57212
2804 1 0.0305621 13.8704 3.08717
2819 2 3.05579 12.1257 4.33861
2818 1 3.08974 13.8116 3.11098
2820 2 4.46168 14.6646 4.28046
2822 1 4.54328 13.0107 5.58202
2832 1 6.01886 13.8695 3.12417
2833 2 6.0208 12.1393 4.35885
2834 2 7.56636 14.671 4.29977
2836 1 7.48911 13.017 5.58583
2846 1 8.98535 13.8537 3.0919
2860 1 11.921 13.8819 3.10531
2847 2 8.99355 12.134 4.3542
2848 2 10.474 14.714 4.36666
2850 1 10.4826 12.9853 5.57956
2861 2 11.9767 12.1299 4.33497
2862 2 13.4615 14.7076 4.33402
2864 1 13.47 12.9836 5.54189
2874 1 14.9866 13.8943 3.0781
2875 2 14.9488 12.1348 4.30447
2876 2 16.4496 14.7224 4.31501
2878 1 16.4605 12.9844 5.52659
2889 2 17.9399 12.1383 4.27162
2890 2 19.4252 14.7343 4.2938
2892 1 19.4394 12.9915 5.5048
2903 2 20.9265 12.1551 4.24868
2904 2 22.406 14.7314 4.26066
2906 1 22.4114 12.9892 5.45842
2917 2 23.8883 12.1412 4.2306
2918 2 25.3892 14.729 4.24395
2920 1 25.3881 12.9859 5.46278
2931 2 26.878 12.1221 4.21659
2932 2 28.3701 14.7085 4.2261
2934 1 28.3707 12.991 5.4382
4205 2 0.0422311 17.2684 4.32668
4207 1 0.0149382 15.5592 5.53559
4203 1 1.54898 16.4549 3.10803
4219 2 3.03787 17.2639 4.31865
4221 1 3.04983 15.5542 5.53145
4217 1 4.58914 16.4382 3.12721
4231 1 7.49608 16.4184 3.13638
4233 2 6.01062 17.3582 4.30283
4235 5 6.00959 15.5706 5.50412
4249 1 8.95359 15.567 5.59331
4245 1 10.4686 16.4294 3.1128
4247 2 8.97545 17.2749 4.37958
4259 1 13.4602 16.4177 3.07357
4261 2 11.9772 17.278 4.36732
4263 1 11.9749 15.5678 5.59965
4273 1 16.445 16.4573 3.06913
4275 2 14.9557 17.2952 4.34738
4277 1 14.9578 15.5691 5.5581
4289 2 17.9345 17.3124 4.3367
4291 1 17.9472 15.5764 5.54329
4303 2 20.913 17.3135 4.31065
4305 1 20.9252 15.5827 5.52099
4317 2 23.8978 17.3121 4.27746
4319 1 23.9051 15.5796 5.48871
4331 2 26.8911 17.31 4.25039
4333 1 26.8897 15.5807 5.46867
5607 1 0.0303486 20.7001 5.55231
4206 2 1.52918 19.8379 4.31533
4208 1 1.49129 18.113 5.52454
5621 1 3.0282 20.7311 5.53642
4220 2 4.52406 19.8531 4.33222
4222 1 4.56015 18.1036 5.53018
4232 1 6.02042 19.006 3.07907
4246 1 8.94233 18.9633 3.0773
5635 1 6.01126 20.7123 5.57217
4234 2 7.50213 19.8535 4.36318
4236 1 7.48537 18.1158 5.60912
5649 1 8.97951 20.7327 5.6065
4248 6 10.4839 19.8758 4.27785
4250 1 10.4754 18.1188 5.62327
4260 1 12.0192 18.958 3.07287
5663 1 12.0046 20.7447 5.60503
4262 2 13.4763 19.8635 4.36086
4264 1 13.4716 18.1471 5.59896
4274 1 14.9559 19.013 3.0896
5677 1 14.979 20.7574 5.57863
4276 2 16.4448 19.8923 4.36178
4278 1 16.4507 18.1611 5.57621
4288 1 17.9258 19.046 3.08854
5691 1 17.9169 20.767 5.60378
4290 2 19.4168 19.8902 4.35871
4292 1 19.429 18.163 5.57654
4302 1 20.9018 19.0401 3.0649
5705 1 20.9167 20.7413 5.58817
4304 2 22.4005 19.8903 4.32725
4306 1 22.4122 18.1612 5.53135
5719 1 23.9059 20.7395 5.55277
4318 2 25.3861 19.8928 4.29884
4320 1 25.4026 18.1598 5.50068
5733 1 26.9222 20.7367 5.5185
4332 2 28.3018 19.8518 4.205
4334 1 28.3929 18.1905 5.46358
5603 1 1.53056 21.503 3.07018
5605 2 0.0475788 22.4225 4.29149
5608 1 1.5366 23.283 5.52684
5619 2 3.02846 22.4163 4.33118
5622 1 4.52044 23.2885 5.58802
5631 1 7.51939 21.5753 3.08473
5633 2 6.0176 22.4362 4.34694
5636 1 7.50848 23.3048 5.57842
5647 2 9.00363 22.4493 4.34797
5650 1 10.4977 23.3083 5.58134
5659 1 13.4542 21.5403 3.09671
5661 2 11.9865 22.4613 4.34833
5664 1 13.5078 23.3082 5.55727
5675 2 14.8806 22.4142 4.27746
5673 1 16.4304 21.6274 3.12284
5678 5 16.4496 23.3201 5.50412
5687 1 19.4156 21.6095 3.09486
5689 2 17.9969 22.4244 4.30694
5692 1 19.3947 23.3117 5.59482
5701 1 22.3907 21.6142 3.0779
5703 2 20.9096 22.4656 4.36637
5706 1 22.4107 23.3137 5.59181
5717 2 23.8924 22.4643 4.34262
5720 1 25.3993 23.3093 5.56503
5731 2 26.8854 22.4556 4.30735
5729 1 28.3135 21.5588 3.08909
5734 1 28.404 23.2819 5.51886
7007 1 0.0511866 25.8757 5.5356
5604 1 0.0605316 24.2115 3.08716
5606 2 1.54806 25.0084 4.31415
7017 1 4.5309 26.7324 3.08632
5618 1 3.09074 24.1709 3.08807
7021 1 3.02635 25.8754 5.55999
5620 2 4.53031 25.0142 4.34642
5632 1 6.03132 24.1652 3.08241
7031 1 7.47022 26.7663 3.10566
7035 1 6.01792 25.8805 5.57816
5634 2 7.51242 25.0241 4.34568
7049 1 9.00083 25.8823 5.5645
5646 1 8.95923 24.1359 3.13201
7045 1 10.502 26.8084 3.14125
5648 2 10.4943 25.0299 4.34452
7059 1 13.5363 26.7667 3.11204
7063 1 11.989 25.8832 5.56884
5660 1 11.978 24.18 3.17829
5662 2 13.4858 25.0286 4.35268
7073 1 16.4792 26.7664 3.11806
7077 1 14.9822 25.8606 5.59485
5674 1 15.0172 24.2091 3.1396
5676 2 16.4616 25.1129 4.3159
7087 1 19.433 26.7565 3.12177
5688 1 17.9344 24.1774 3.15003
7091 1 17.9324 25.8673 5.62435
5690 2 19.4242 25.0341 4.38679
5702 1 20.9058 24.1842 3.10868
7101 1 22.4021 26.7611 3.11377
7105 1 20.926 25.895 5.60593
5704 2 22.4061 25.0399 4.37471
5716 1 23.8747 24.1893 3.09515
7115 1 25.3724 26.7686 3.09373
5730 1 26.8196 24.2018 3.07077
7119 1 23.9115 25.8945 5.61261
5718 2 25.3818 25.0348 4.34411
7133 1 26.8984 25.8776 5.55472
5732 2 28.3714 25.0174 4.2993
7005 2 0.0618008 27.6001 4.31304
7008 1 1.53807 28.4734 5.55788
7019 2 3.03551 27.6012 4.32968
7022 1 4.51783 28.4788 5.56205
7032 1 6.00151 29.287 3.08986
7033 2 6.01365 27.6075 4.34725
7036 1 7.5069 28.4749 5.59137
7046 1 8.99367 29.3202 3.08847
7047 2 9.00094 27.6076 4.35466
7050 1 10.4867 28.469 5.60537
7060 1 11.9994 29.3285 3.09984
7061 2 11.9913 27.6073 4.3596
7064 1 13.4811 28.4601 5.60162
7074 1 14.9772 29.3319 3.12523
7075 2 14.975 27.606 4.38011
7078 1 16.4606 28.4645 5.61338
7088 1 17.9551 29.3337 3.12771
7089 2 17.955 27.6113 4.39404
7092 1 19.443 28.4734 5.61561
7102 1 20.9219 29.3384 3.11457
7103 2 20.9261 27.6167 4.38495
7106 1 22.4267 28.4744 5.62282
7116 1 23.905 29.3181 3.11025
7117 2 23.9054 27.6145 4.37064
7120 1 25.4285 28.4789 5.5434
7131 2 26.8812 27.5145 4.37913
7130 5 26.8896 29.3474 3.092
7134 1 28.3649 28.4869 5.53
11 1 0.0420344 1.82649 8.01846
13 3 0.0381348 0.110925 8.98373
9 2 1.54518 0.956549 6.7629
14 3 1.53755 2.66702 8.99013
25 1 3.03581 1.81306 8.03452
27 3 3.05134 0.106634 9.02147
23 2 4.52908 0.944423 6.76813
28 3 4.52762 2.66938 8.99672
39 1 6.01727 1.80704 8.03523
41 3 6.01773 0.0939073 9.00974
37 2 7.50938 0.943878 6.77244
42 3 7.50719 2.6608 9.00314
53 1 8.99997 1.80919 8.03697
55 3 9.0012 0.0962345 9.01191
51 2 10.4907 0.938668 6.77328
56 3 10.4981 2.66534 8.98965
67 1 11.9855 1.75725 8.06878
69 3 11.9853 0.0649329 9.03326
65 2 13.4781 0.936483 6.76903
70 3 13.4774 2.66131 8.98653
81 1 14.975 1.80624 8.03205
83 3 14.9723 0.0891368 9.00007
79 2 16.4615 0.932906 6.76085
84 3 16.4729 2.663 8.98609
95 1 17.9552 1.78459 8.02732
97 3 17.9478 0.0620504 8.98771
93 2 19.4461 0.932175 6.74963
98 3 19.4507 2.62926 8.993
109 1 20.8884 1.81347 7.95311
111 7 20.9239 0.0716338 8.97177
107 2 22.4418 0.926972 6.70974
112 7 22.4153 2.65479 8.97177
123 1 23.9529 1.7635 7.95025
125 3 23.9486 0.0656819 8.9295
121 2 25.3297 0.953154 6.75048
126 3 25.4183 2.64014 8.91918
137 1 26.8783 1.80823 7.90774
139 7 26.8896 0.0716338 8.97177
135 2 28.3884 0.966647 6.73032
140 3 28.3381 2.64617 8.91367
151 1 29.7879 1.79336 7.91928
1413 3 0.0558789 5.23099 8.98212
10 2 0.0460633 3.52718 6.75005
12 1 1.54626 4.37983 8.01647
1427 3 3.02863 5.23738 8.99258
24 2 3.03634 3.52521 6.75645
26 1 4.52212 4.38603 8.02818
1441 3 6.00768 5.23776 9.00439
38 2 6.0169 3.52364 6.76727
40 1 7.50068 4.38219 8.04304
1455 3 8.97123 5.24358 9.03484
52 2 8.99257 3.5248 6.77043
54 1 10.4441 4.40763 8.07084
1469 3 11.9907 5.22649 8.97721
66 6 11.9753 3.51584 6.73038
68 1 13.5258 4.39899 8.05894
1483 3 14.9946 5.2436 9.01876
80 2 14.9804 3.52116 6.76545
82 1 16.4814 4.39308 8.03916
1497 3 17.9992 5.24829 8.96385
94 2 17.9546 3.51268 6.75648
96 1 19.4696 4.32557 8.03543
1511 3 20.9394 5.29828 8.91964
108 2 20.9335 3.52045 6.74033
110 1 22.4282 4.43284 7.97993
1525 3 23.9173 5.28961 8.92791
122 2 23.9068 3.51183 6.71682
124 1 25.3728 4.36639 7.96905
1539 3 26.8654 5.19855 8.95182
136 2 26.8665 3.50009 6.68954
138 1 28.3508 4.36702 7.95759
150 2 29.8318 3.48703 6.69505
1411 1 0.0815351 6.9247 7.99197
1410 2 0.0395857 8.68741 6.75411
1409 2 1.54159 6.09851 6.75239
1414 3 1.52434 7.79853 8.99119
1425 1 3.02734 6.95869 8.0322
1424 2 3.02881 8.68123 6.78346
1423 2 4.52423 6.10093 6.76524
1428 3 4.5174 7.80129 9.0064
1439 1 6.01927 6.96104 8.04763
1438 2 6.01478 8.68218 6.79447
1437 2 7.50683 6.0998 6.77577
1442 3 7.51617 7.8035 9.0171
1453 1 8.9985 6.94713 8.04434
1452 2 9.00198 8.67804 6.7901
1451 2 10.4894 6.10173 6.77129
1456 3 10.4867 7.80278 9.01015
1467 1 11.986 6.96198 8.04239
1466 2 11.9933 8.68252 6.79204
1465 2 13.4829 6.09812 6.76535
1470 3 13.4941 7.79545 8.99972
1481 1 14.9475 6.92698 8.01059
1480 2 14.9883 8.67477 6.77275
1479 2 16.4654 6.10405 6.76422
1484 7 16.4496 7.82111 8.97177
1495 1 17.9847 6.96281 8.01213
1494 2 17.9663 8.67793 6.74257
1493 6 19.4325 6.099 6.73038
1498 3 19.4942 7.80728 8.93639
1508 2 20.8717 8.74237 6.79496
1509 1 21.003 7.01236 7.95266
1507 2 22.4311 6.03433 6.7837
1512 3 22.4549 7.84727 8.94248
1523 1 23.9052 6.98667 7.92628
1522 2 23.9604 8.73207 6.75503
1521 2 25.3683 6.09287 6.68246
1526 3 25.3909 7.83523 8.90315
1537 1 26.8698 6.89895 7.99922
1536 6 26.8896 8.68216 6.73038
1535 2 28.3536 6.09023 6.7003
1540 3 28.3265 7.8444 8.93285
1551 1 29.8186 6.99806 8.00805
2813 3 0.00934785 10.3918 8.99779
2809 2 1.54851 11.2588 6.78636
1412 1 1.47402 9.51094 8.03009
2827 7 3.02673 10.4043 8.97177
2823 2 4.52612 11.2633 6.80153
1426 1 4.51455 9.48023 8.00909
2841 7 6.00959 10.4043 8.97177
2837 2 7.50584 11.2657 6.80899
1440 1 7.54508 9.50649 8.04233
2855 3 9.0063 10.3669 9.02682
2851 2 10.4973 11.2612 6.81088
1454 1 10.4644 9.50719 8.03694
2869 7 11.9753 10.4043 8.97177
2865 2 13.4787 11.2596 6.79004
1468 1 13.5536 9.50323 8.03188
2883 3 15.0142 10.3956 8.99471
2879 2 16.4827 11.2585 6.73713
1482 1 16.4935 9.59287 7.98841
2897 3 17.9705 10.4223 8.9785
2893 2 19.4511 11.2688 6.72493
1496 1 19.4464 9.54624 8.00749
2911 3 20.9568 10.4023 8.94185
2907 2 22.4102 11.2535 6.68401
1510 1 22.4251 9.54412 7.94406
2925 3 23.8861 10.4141 8.94217
2921 2 25.3823 11.2686 6.67553
1524 1 25.3559 9.57433 7.97668
2939 3 26.8742 10.4101 8.91532
2935 2 28.367 11.2725 6.68155
1538 1 28.4066 9.5782 7.99805
2811 1 0.027667 12.0893 8.01456
2810 2 0.0481126 13.8452 6.7818
2812 1 1.53951 14.7478 8.01427
2814 7 1.5353 12.9874 8.97177
2825 1 3.04246 12.1129 7.95496
2824 2 3.02314 13.8388 6.77121
2826 1 4.49471 14.7503 8.00327
2828 7 4.51816 12.9874 8.97177
2839 1 6.05708 12.1451 8.03353
2838 2 6.00485 13.7701 6.87031
2840 1 7.45734 14.7243 8.05113
2842 3 7.5113 13.0048 9.01361
2853 1 8.99557 12.1006 8.08315
2852 2 8.9767 13.8464 6.80973
2854 1 10.4274 14.6771 8.04919
2856 3 10.4824 12.9808 9.03052
2867 1 11.9904 12.191 8.04993
2866 2 11.98 13.854 6.8079
2868 1 13.531 14.6874 8.03832
2870 3 13.5041 12.9878 9.01512
2881 1 14.973 12.1146 8.03353
2880 2 14.9723 13.8386 6.77305
2882 1 16.4802 14.6802 8.02817
2884 3 16.4793 12.9585 8.98608
2895 1 17.9716 12.1305 8.00007
2894 2 17.9603 13.847 6.75142
2896 1 19.459 14.7161 8.02738
2898 3 19.4663 12.9808 8.96356
2909 1 20.9402 12.121 7.97655
2908 2 20.9353 13.8487 6.72655
2910 1 22.4391 14.6914 7.98532
2912 3 22.432 12.9703 8.94501
2923 1 23.9083 12.1203 7.95531
2922 2 23.9093 13.8439 6.70039
2924 1 25.4091 14.6969 7.96698
2926 3 25.3992 12.9733 8.92295
2937 1 26.8822 12.1233 7.9422
2936 2 26.8847 13.846 6.68563
2938 1 28.368 14.7005 7.95181
2940 3 28.3581 12.9858 8.9234
4213 3 0.0396798 15.5546 8.98865
4209 2 1.51909 16.4088 6.75762
4225 1 3.00152 17.2511 8.03985
4227 3 3.01948 15.5663 9.01232
4223 2 4.44178 16.4489 6.83098
4239 1 5.94508 17.2493 7.99944
4241 3 5.95889 15.5731 9.01066
4237 2 7.56651 16.4685 6.8868
4253 1 9.03255 17.2543 8.07936
4255 3 8.96328 15.5371 9.03021
4251 2 10.4797 16.4307 6.81516
4267 1 11.9305 17.3171 8.03209
4269 7 11.9753 15.5706 8.97177
4265 2 13.4691 16.4228 6.8161
4281 1 14.9923 17.2279 8.04548
4283 3 15.0077 15.5255 9.02212
4279 2 16.4575 16.4194 6.78791
4295 1 17.9148 17.258 8.04036
4297 3 17.9576 15.5462 9.0005
4293 2 19.4442 16.4371 6.78117
4309 1 20.9951 17.2627 8.02077
4311 3 20.9718 15.5498 8.9793
4307 2 22.4301 16.4279 6.74361
4323 1 23.9444 17.2664 7.99945
4325 3 23.9295 15.5427 8.95511
4321 2 25.4103 16.4285 6.71368
4337 1 26.9108 17.2844 7.97289
4339 3 26.8933 15.5626 8.93301
4335 2 28.3882 16.4321 6.68635
5613 7 0.0438679 20.7369 8.97177
4210 2 0.00713636 18.9865 6.76327
4212 1 1.49456 19.8417 8.05288
4214 3 1.51455 18.1218 8.99284
5627 3 3.00412 20.6709 8.98385
4224 6 3.02673 19.0148 6.73038
4226 1 4.59634 19.894 8.12325
4228 3 4.49124 18.1241 8.98579
5641 3 6.07241 20.7531 9.06449
4238 2 6.01955 18.9939 6.80595
4240 1 7.51981 19.9019 8.05214
4242 7 7.50103 18.1537 8.97177
5655 3 8.98603 20.7462 9.04287
4252 2 8.98746 19.0001 6.83395
4254 1 10.4931 19.8821 8.10769
4256 3 10.4867 18.1486 9.04698
5669 3 12.0055 20.7454 9.03763
4266 2 11.982 19.0084 6.82957
4268 1 13.4769 19.9094 8.04794
4270 7 13.4668 18.1537 8.97177
5683 3 14.9594 20.7393 9.02678
4280 2 14.9553 18.9994 6.81341
4282 1 16.4067 19.8119 8.07658
4284 3 16.4445 18.0953 9.03344
5697 7 17.941 20.7369 8.97177
4294 2 17.9426 19.0126 6.80748
4296 1 19.4317 19.8661 7.9749
4298 7 19.4325 18.1537 8.97177
5711 7 20.9239 20.7369 8.97177
4308 2 20.9283 19.0113 6.79368
4310 1 22.4707 19.8228 8.03449
4312 3 22.4734 18.1107 8.99599
5725 3 23.9396 20.6969 8.99991
4322 2 23.9189 19.004 6.75683
4324 1 25.4173 19.8505 8.0101
4326 3 25.4316 18.1265 8.96554
5739 3 26.9132 20.6966 8.97078
4336 2 26.9044 19.0129 6.71874
4338 1 28.3937 19.8759 7.95879
4340 3 28.3932 18.1602 8.93221
5611 1 0.0200013 22.4888 7.99516
5609 2 1.5099 21.5659 6.7771
5614 3 1.49945 23.2938 8.99945
5625 1 2.95058 22.3887 8.03417
5623 2 4.52292 21.579 6.80848
5628 7 4.51816 23.3201 8.97177
5639 1 6.05219 22.4284 8.04617
5637 2 7.51858 21.5787 6.79899
5642 3 7.50893 23.2922 9.03366
5653 1 8.97 22.4347 8.04556
5651 2 10.4967 21.5982 6.8225
5656 7 10.4839 23.3201 8.97177
5667 1 12.0372 22.4319 8.03869
5665 2 13.4777 21.5864 6.78829
5670 3 13.5129 23.2745 9.01949
5681 1 14.9973 22.4386 8.02921
5679 2 16.4591 21.4943 6.89227
5684 3 16.4462 23.3121 9.03258
5695 1 17.9429 22.5149 8.04737
5693 2 19.421 21.5955 6.8162
5698 3 19.4343 23.3148 9.04585
5709 1 20.913 22.4811 8.06177
5707 2 22.4109 21.5846 6.81163
5712 3 22.4018 23.3068 9.03686
5723 1 23.8971 22.4428 8.081
5721 2 25.4028 21.5815 6.76978
5726 3 25.4234 23.2728 9.01275
5737 1 26.8661 22.4052 8.00666
5735 2 28.3182 21.6276 6.80784
5740 7 28.3811 23.3201 8.97177
7013 3 0.0333163 25.8594 8.9837
5610 2 0.042362 24.1543 6.75303
7009 2 1.53381 26.7413 6.7786
5612 1 1.54917 25.0183 8.0473
7027 3 3.03023 25.8971 9.01119
5624 2 3.02597 24.1464 6.79201
7023 2 4.51427 26.7474 6.79371
5626 1 4.51235 25.0607 8.03727
7041 3 5.98768 25.8953 9.02347
5638 2 6.0092 24.16 6.81084
7037 2 7.50082 26.748 6.80935
5640 1 7.49428 25.025 8.09013
7055 3 8.99574 25.89 9.03044
5652 2 9.00311 24.1682 6.80975
7051 2 10.4878 26.7498 6.81124
5654 1 10.49 25.0829 8.04861
7069 3 11.9837 25.8793 9.04372
5666 2 11.9845 24.1617 6.7998
7065 2 13.4819 26.7362 6.81485
5668 1 13.4611 25.005 8.07595
5680 2 14.8985 24.1968 6.86391
7083 3 14.956 25.8519 9.03975
7079 2 16.4615 26.736 6.83432
5682 1 16.3999 24.9912 8.02687
7097 7 17.941 25.9032 8.97177
5694 2 18.0105 24.2155 6.89116
7093 2 19.4345 26.7492 6.84042
5696 1 19.4694 25.0133 8.07056
7111 3 20.929 25.8611 9.06513
5708 2 20.9228 24.1684 6.82345
7107 2 22.4347 26.7552 6.84599
5710 1 22.395 25.0152 8.07311
7125 7 23.9068 25.9032 8.97177
5722 2 23.9171 24.1724 6.8237
7121 2 25.4211 26.7524 6.80409
5724 1 25.4864 24.9864 8.05526
7139 3 26.9513 25.8907 9.00106
5736 2 26.9174 24.1548 6.77676
7135 2 28.4036 26.7523 6.76601
5738 1 28.421 25.0695 7.99633
7011 1 0.0356565 27.5358 7.98197
7010 2 0.0392552 29.334 6.76753
7014 7 1.5353 28.4864 8.97177
7025 1 3.04872 27.5927 8.02537
7024 2 3.01216 29.3378 6.78056
7028 3 4.49907 28.4703 9.0108
7039 1 5.9631 27.5941 8.0434
7038 2 5.99941 29.3391 6.79663
7042 7 7.50103 28.4864 8.97177
7053 1 8.98168 27.5609 8.02303
7052 2 8.98644 29.3303 6.83018
7056 7 10.4839 28.4864 8.97177
7067 1 12.0243 27.5736 8.05912
7066 2 11.9747 29.3147 6.83653
7070 3 13.4755 28.4346 9.05733
7081 1 14.9796 27.5888 8.10484
7080 2 14.9681 29.3226 6.84692
7084 3 16.4619 28.4641 9.0658
7095 1 17.9592 27.6636 8.085
7094 2 17.9577 29.3389 6.85097
7098 3 19.458 28.4673 9.06489
7109 1 20.9055 27.5671 8.09249
7108 2 20.9538 29.3324 6.84627
7112 7 22.4153 28.4864 8.97177
7123 1 24.003 27.6518 8.02827
7122 2 23.9376 29.3383 6.81344
7126 3 25.4618 28.4943 9.01495
7140 3 28.4157 28.4658 8.99841
7136 2 26.9251 29.3263 6.7561
7137 1 26.924 27.6092 8.03629
8401 7 0.0438679 31.0695 2.03646
8415 7 3.02673 31.0695 2.03646
8429 7 6.00959 31.0695 2.03646
8443 3 9.05495 31.0482 2.14514
8457 3 12.0019 31.0592 2.15392
8471 3 14.9604 31.0505 2.16523
8485 3 17.9365 31.0435 2.1515
8499 3 20.9101 31.0527 2.14135
8513 3 23.9079 31.0212 2.1245
8527 3 26.8885 31.0975 2.06868
8529 1 28.384 31.8796 3.04818
8402 3 1.55849 33.6518 2.06955
8404 1 0.0638731 34.5323 3.00623
8416 3 4.5248 33.6572 2.08551
8430 7 7.50103 33.6527 2.03646
8444 3 10.4637 33.5884 2.10688
8458 3 13.5182 33.5749 2.12818
8472 7 16.4496 33.6527 2.03646
8486 3 19.4342 33.6521 2.13823
8500 3 22.3879 33.618 2.11049
8514 7 25.3982 33.6527 2.03646
8528 3 28.422 33.5885 2.06875
8530 1 26.9946 34.4226 3.0567
9801 3 0.0700539 36.2628 2.06092
9802 3 1.61095 38.7719 2.01842
9815 7 3.02673 36.2358 2.03646
9816 3 4.53723 38.8211 2.07095
9817 1 4.57988 37.1242 3.05565
9829 3 6.02363 36.2243 2.07912
9830 3 7.53623 38.7614 2.07522
9831 1 7.53761 37.0427 3.03794
9843 3 9.03479 36.17 2.09176
9844 3 10.5155 38.7243 2.11978
9857 3 11.9913 36.2957 2.09102
9858 3 13.456 38.7454 2.14049
9871 7 14.9582 36.2358 2.03646
9872 3 16.476 38.791 2.12684
9885 3 17.9719 36.2344 2.13034
9886 3 19.4422 38.8108 2.13195
9899 3 20.9206 36.2376 2.13127
9900 3 22.4046 38.8172 2.12559
9913 7 23.9068 36.2358 2.03646
9914 3 25.3807 38.8315 2.09469
9927 7 26.8896 36.2358 2.03646
9928 7 28.3811 38.819 2.03646
11201 3 0.0718302 41.4332 2.01272
11215 3 3.01993 41.367 2.04179
9818 1 3.02651 39.6592 3.0247
11229 3 6.01387 41.3868 2.04356
9832 1 6.05026 39.6666 3.00692
11243 7 8.99246 41.4022 2.03646
9846 1 9.02254 39.5901 3.05337
11257 7 11.9753 41.4022 2.03646
9860 1 11.9744 39.6644 3.03353
11271 3 14.9964 41.3674 2.10067
9874 1 14.9573 39.6408 3.05623
11285 3 17.9654 41.3727 2.11072
11299 3 20.9328 41.3846 2.11298
11313 3 23.8955 41.3988 2.11266
11327 7 26.8896 41.4022 2.03646
11202 3 1.55557 43.9529 2.03526
11203 1 1.54012 42.2369 3.00979
11204 1 0.0972163 44.8543 2.99207
11216 3 4.5228 43.9404 2.02523
11218 1 3.04442 44.835 2.97565
11217 1 4.5117 42.2291 3.00017
11230 3 7.47897 43.952 2.02983
11232 1 5.99845 44.7759 3.01302
11231 1 7.47486 42.2598 3.02155
11246 1 8.94134 44.8266 3.00779
11244 7 10.4839 43.9853 2.03646
11258 3 13.5286 43.9578 2.06476
11260 1 12.0557 44.8149 3.03972
11259 1 13.5327 42.2625 3.0548
11272 3 16.4815 43.9446 2.08941
11274 1 14.9979 44.8142 3.05272
11286 3 19.452 43.9489 2.09191
11288 1 17.9649 44.8107 3.05554
11300 3 22.425 43.9598 2.09912
11302 1 20.9332 44.8262 3.05202
11314 3 25.3902 43.968 2.09035
11316 1 23.91 44.8324 3.05852
11328 3 28.4047 43.9761 2.08389
11330 1 26.8972 44.8134 3.04177
11329 1 28.4469 42.2696 3.05313
12601 3 0.061233 46.5551 2.01249
12603 1 1.53144 47.4305 2.98771
12615 3 3.01104 46.561 2.02076
12617 1 4.47544 47.4244 3.00098
12629 7 6.00959 46.5685 2.03646
12631 1 7.57389 47.4276 3.00542
12643 3 9.01728 46.5256 2.02933
12645 1 10.5196 47.3204 3.01062
12657 3 12.0225 46.5047 2.04485
12659 1 13.4958 47.4 2.99958
12671 3 14.991 46.5166 2.06321
12673 1 16.4743 47.3518 3.04
12685 3 17.9563 46.5125 2.065
12687 1 19.4352 47.404 3.01758
12699 3 20.9337 46.5373 2.07337
12701 1 22.4297 47.3949 3.02973
12713 3 23.9216 46.537 2.06978
12715 1 25.4092 47.4066 3.02749
12727 3 26.9037 46.5359 2.0818
12729 1 28.3847 47.414 3.04263
12602 3 1.54246 49.153 2.02998
12616 3 4.53861 49.0975 1.98025
12618 1 3.08648 49.984 2.92973
12630 3 7.51637 49.115 2.00752
12632 1 6.01488 49.9198 2.9809
12644 7 10.4839 49.1516 2.03646
12646 1 8.95826 49.9994 3.00046
12658 3 13.497 49.1197 2.03642
12660 1 12.0414 50.0072 3.00605
12672 7 16.4496 49.1516 2.03646
12674 1 14.9379 49.9551 3.05228
12686 3 19.4647 49.1182 2.04595
12688 1 18.0218 50.0402 3.00862
12700 3 22.4433 49.1009 2.0471
12702 1 20.9576 49.9327 3.02234
12714 3 25.4035 49.114 2.03962
12716 1 23.9228 49.9857 3.00626
12728 3 28.3854 49.1383 2.08606
12730 1 26.8586 49.978 3.00607
14001 3 0.0540565 51.7081 2.01524
14003 1 1.51861 52.6457 2.94135
14015 3 3.00086 51.7326 2.02268
14017 1 4.47024 52.6131 2.9801
14029 7 6.00959 51.7348 2.03646
14031 1 7.57254 52.5538 2.9943
14043 3 9.00588 51.6819 1.99706
14045 1 10.4925 52.5118 2.97192
14057 3 12.0033 51.7019 2.01673
14059 1 13.4419 52.6058 2.99963
14071 7 14.9582 51.7348 2.03646
14073 1 16.4666 52.5656 2.99928
14085 3 17.9807 51.7565 2.05392
14087 1 19.4989 52.5801 2.97378
14099 7 20.9239 51.7348 2.03646
14101 1 22.5079 52.546 3.02549
14113 3 23.986 51.7132 2.06132
14115 1 25.449 52.5813 3.0563
14127 3 26.7963 51.6478 2.00106
15401 3 0.0519077 56.8862 1.98551