ITEM: TIMESTEP
100000
ITEM: NUMBER OF ATOMS
81200
ITEM: BOX BOUNDS pp pp pp
9.9204758827987280e-02 2.9820029113720170e+02
8.9434123146333977e-02 2.9955827785103014e+02
0.0000000000000000e+00 4.9031656433928198e+01
ITEM: ATOMS id type x y z
1 3 0.170799 0.132513 2.07004
2 3 1.6717 2.74586 2.06935
3 1 1.63557 1.02878 3.03578
15 3 3.13148 0.17209 2.08261
16 3 4.62074 2.74105 2.08104
29 7 6.09849 0.160331 2.03646
30 3 7.62855 2.76997 2.09395
43 3 9.10141 0.181266 2.0924
44 3 10.5895 2.74289 2.0945
57 3 12.0601 0.165434 2.09258
58 3 13.5614 2.7275 2.10037
59 1 13.5613 1.00545 3.05742
71 3 15.0721 0.185279 2.09445
72 3 16.5191 2.76259 2.10266
85 7 18.0225 0.160331 2.03646
86 3 19.5136 2.77104 2.11163
99 7 21.0035 0.160331 2.03646
100 7 22.494 2.74196 2.03646
113 3 23.9826 0.294836 2.06619
114 3 25.453 2.75636 2.06983
127 7 26.9656 0.160331 2.03646
128 3 28.4562 2.7297 2.09815
1401 3 0.157212 5.33598 2.07022
4 1 0.217145 3.63362 3.04418
1415 7 3.11748 5.32359 2.03646
1429 3 6.13511 5.35101 2.09784
32 1 6.113 3.61383 3.03369
1443 3 9.09252 5.36393 2.1011
46 1 9.11493 3.63663 3.05303
1457 7 12.0605 5.32359 2.03646
1471 3 15.0598 5.3504 2.10838
74 1 15.0311 3.62449 3.06272
1485 3 18.0099 5.32208 2.08862
1499 3 21.0053 5.32883 2.12254
1513 3 23.9934 5.28781 2.06096
1527 3 26.9468 5.31473 2.07167
130 1 26.9534 3.59429 3.0351
1541 3 29.9075 5.32487 2.08132
1402 3 1.64697 7.94926 2.09423
1403 1 1.58968 6.24085 3.05998
1416 3 4.6621 7.93275 2.10867
1430 3 7.61403 7.93828 2.12771
1444 3 10.5687 7.93654 2.12823
1458 3 13.5805 7.93317 2.13294
1472 3 16.544 7.90459 2.12208
1486 3 19.5069 7.91211 2.12602
1487 1 19.482 6.17012 3.04456
1502 1 20.9509 8.86436 3.05454
1500 7 22.494 7.90521 2.03646
1501 1 22.5468 6.10787 3.05627
1514 3 25.4581 7.90577 2.07673
1515 1 25.458 6.18114 3.03083
1528 3 28.4287 7.8868 2.07436
1529 1 28.4235 6.17721 3.05102
1530 1 26.9481 8.71682 3.05948
2801 3 0.196063 10.5139 2.10122
2815 3 3.16437 10.487 2.12359
2829 3 6.12848 10.5166 2.13987
2843 3 9.09393 10.5219 2.15123
2857 3 12.0644 10.4827 2.14855
2871 3 15.0219 10.5037 2.13723
2885 7 18.0225 10.4868 2.03646
2899 3 20.9786 10.5326 2.0703
2901 1 22.4851 11.311 3.05782
2913 3 23.9732 10.4823 2.08378
2915 1 25.4106 11.4066 3.04857
2927 7 26.9656 10.4868 2.03646
2802 7 1.62697 13.0685 2.03646
2816 3 4.66596 13.0785 2.15637
2830 3 7.5883 13.0934 2.16792
2844 3 10.5697 13.0905 2.16338
2858 7 13.551 13.0685 2.03646
2872 3 16.516 13.108 2.13818
2886 3 19.5061 13.1214 2.11621
2900 7 22.494 13.0685 2.03646
2914 3 25.4329 13.1163 2.08027
2930 1 26.9086 13.953 3.06427
2928 7 28.4561 13.0685 2.03646
4201 7 0.136467 15.6501 2.03646
4215 7 3.11748 15.6501 2.03646
4229 3 6.13892 15.6512 2.1662
4243 3 9.07952 15.6619 2.18432
4257 3 12.0446 15.6618 2.17809
4271 3 15.0576 15.6742 2.16222
4285 3 18.0156 15.6794 2.15506
4299 3 20.9689 15.6978 2.13058
4313 3 23.9749 15.697 2.10868
4327 3 26.9332 15.6573 2.09375
5601 3 0.162747 20.7372 2.09585
4202 3 1.65368 18.2031 2.1213
5615 3 3.14074 20.7692 2.12838
4216 3 4.65623 18.1963 2.14381
5629 3 6.1273 20.8032 2.15106
4230 3 7.58893 18.1844 2.15219
5643 3 9.11733 20.7738 2.18924
4244 3 10.5786 18.2262 2.1969
5657 3 12.0689 20.761 2.18462
4258 3 13.5868 18.2108 2.15943
5671 3 15.0611 20.8118 2.19603
4272 7 16.5417 18.2543 2.17539
5685 3 17.9992 20.8436 2.20006
4286 3 19.4936 18.2717 2.16792
5699 3 20.9866 20.8345 2.17735
4300 3 22.464 18.266 2.14613
5713 3 23.9596 20.8456 2.16013
4314 3 25.435 18.2798 2.11716
5727 3 26.9248 20.8418 2.13981
4328 7 28.4561 18.2317 2.03646
5602 7 1.62697 23.395 2.03646
5616 3 4.65551 23.3749 2.1337
5630 3 7.61565 23.3663 2.15718
5644 7 10.57 23.395 2.03646
5658 7 13.551 23.395 2.03646
5672 3 16.5555 23.4101 2.20255
5686 3 19.4965 23.407 2.20507
5700 3 22.4761 23.4081 2.18499
5714 3 25.4405 23.4221 2.16435
5728 7 28.4561 23.395 2.03646
7001 3 0.175267 25.9542 2.09002
7015 3 3.16694 25.9359 2.11756
7029 3 6.12262 25.9538 2.14348
7043 7 9.0795 25.9766 2.03646
7057 7 12.0605 25.9766 2.03646
7071 3 15.0979 25.9701 2.18984
7085 3 18.0436 25.9506 2.2073
7099 3 21.0046 25.9706 2.19725
7113 3 23.9812 25.9811 2.19244
7127 3 26.933 25.9815 2.15886
7002 3 1.66874 28.4976 2.0939
7004 1 0.184742 29.3466 3.06025
7016 3 4.6337 28.5028 2.11878
7030 3 7.59929 28.5309 2.14751
7044 3 10.6003 28.551 2.1682
7058 3 13.5937 28.5425 2.1842
7072 7 16.5566 28.5525 2.1942
7086 3 19.5214 28.538 2.19523
7100 3 22.4928 28.5425 2.18976
7114 7 25.3654 28.4858 2.10847
7128 7 28.5529 28.4769 2.08427
5 2 0.150205 1.88338 4.28842
7 1 0.154352 0.161784 5.532
8 1 1.63854 2.74578 5.53072
17 1 4.58689 1.04663 3.06741
19 2 3.13359 1.88734 4.30755
21 1 3.13466 0.164655 5.5396
22 1 4.62628 2.75065 5.54123
31 1 7.65408 1.07002 3.07545
33 2 6.11712 1.88956 4.30657
35 1 6.11444 0.168587 5.52856
36 1 7.60127 2.75361 5.55063
45 1 10.5852 1.03118 3.06814
47 2 9.10609 1.90332 4.33243
49 1 9.09073 0.167529 5.55616
50 1 10.5582 2.73851 5.53485
61 2 12.076 1.88075 4.32163
63 1 12.0753 0.166396 5.55784
64 1 13.5921 2.73322 5.53533
73 1 16.5099 1.0681 3.09246
75 2 15.0445 1.89444 4.33879
77 1 15.0555 0.162111 5.5594
78 1 16.5488 2.74863 5.57178
89 2 18.0382 1.89003 4.33231
91 1 18.0478 0.159461 5.54513
87 1 19.5451 1.09907 3.12118
92 1 19.5276 2.74946 5.56927
103 2 21.0185 1.89429 4.33887
105 1 21.03 0.141468 5.57224
101 1 22.5398 0.989216 3.14963
106 1 22.5087 2.73557 5.56385
115 1 25.4336 1.09918 3.07345
117 2 23.9863 1.87728 4.33897
119 1 23.9682 0.114983 5.5547
120 1 25.4805 2.69924 5.54628
131 2 26.9461 1.95238 4.23746
133 1 26.9656 0.160331 5.50412
129 1 28.4636 1.03966 3.1004
134 1 28.4186 2.70617 5.53664
147 1 29.8933 0.156589 5.56772
1407 1 0.143491 5.32365 5.52829
6 2 1.64942 4.47679 4.29504
18 1 3.14396 3.5723 3.06637
1421 1 3.1299 5.32883 5.52265
20 2 4.625 4.47571 4.3076
1435 1 6.11114 5.32723 5.55794
34 2 7.60603 4.47733 4.32595
1449 1 9.09255 5.32863 5.56904
48 2 10.5871 4.48083 4.31743
60 1 12.0776 3.55915 3.07896
1463 1 12.0755 5.3562 5.52485
62 2 13.5647 4.47697 4.32132
1477 1 15.062 5.32475 5.57662
76 2 16.5428 4.47081 4.34396
88 1 18.0132 3.61149 3.06948
1491 1 18.0439 5.3299 5.57504
90 2 19.5207 4.47026 4.34543
102 1 20.967 3.63306 3.10544
1505 1 21.0355 5.31945 5.58972
104 2 22.5073 4.45509 4.32963
116 1 24.0196 3.61977 3.08988
1519 1 23.9696 5.34258 5.54357
118 2 25.4627 4.45333 4.32199
1533 1 26.9418 5.3142 5.53557
132 2 28.4359 4.45389 4.31491
144 1 29.9011 3.63027 3.07292
1404 1 0.185185 8.81251 3.07617
1405 2 0.139471 7.05637 4.30313
1408 1 1.6395 7.90771 5.55194
1418 1 3.15387 8.76099 3.07167
1417 1 4.67899 6.22707 3.07946
1419 2 3.13501 7.04934 4.31665
1422 1 4.61921 7.90702 5.57208
1432 1 6.12908 8.79541 3.0995
1431 1 7.60917 6.21125 3.07944
1433 2 6.11905 7.0596 4.34417
1436 1 7.59946 7.91145 5.5886
1446 1 9.09285 8.79808 3.10678
1445 1 10.5414 6.23175 3.09996
1447 2 9.09213 7.06196 4.35479
1450 1 10.5863 7.90926 5.59356
1460 1 12.0733 8.7594 3.10147
1459 1 13.6133 6.22748 3.103
1461 2 12.0766 7.04074 4.35353
1464 1 13.5674 7.90805 5.59298
1474 1 15.0725 8.78373 3.09704
1473 1 16.5478 6.18829 3.08765
1475 2 15.0639 7.05434 4.35826
1478 1 16.5563 7.90856 5.60185
1488 1 18.0232 8.72833 3.11341
1489 2 18.0362 7.0512 4.35532
1492 1 19.5361 7.93242 5.59286
1503 6 21.0035 7.04467 4.27785
1506 5 22.494 7.90521 5.50412
1517 6 24.0346 7.00183 4.22919
1516 1 24.0134 8.78731 3.07412
1520 1 25.4236 7.90157 5.52671
1531 2 26.9405 7.04088 4.30976
1534 1 28.4307 7.90198 5.53672
2803 1 1.67792 11.3091 3.10635
2807 1 0.149043 10.491 5.55325
1406 2 1.65136 9.63128 4.33708
2817 1 4.63366 11.3562 3.11131
2821 1 3.13511 10.4897 5.59711
1420 2 4.62956 9.63575 4.36487
2831 1 7.60546 11.3711 3.1259
2835 1 6.10752 10.4975 5.62292
1434 2 7.60351 9.64495 4.37909
2845 1 10.5908 11.3648 3.11805
2849 1 9.08811 10.4987 5.61362
1448 2 10.5843 9.63742 4.3805
2859 1 13.542 11.304 3.14412
2863 1 12.0707 10.4892 5.63529
1462 2 13.5617 9.62784 4.37697
2873 1 16.4728 11.4015 3.10888
2877 1 15.0553 10.4886 5.59976
1476 2 16.5475 9.63915 4.35314
2887 1 19.5559 11.4175 3.09065
2891 1 18.0414 10.4924 5.55554
1490 2 19.516 9.65305 4.32933
2905 1 21.0228 10.4648 5.5529
1504 2 22.4823 9.69391 4.2341
2919 1 23.9595 10.4561 5.52859
1518 2 25.4579 9.62865 4.29405
2933 1 26.9433 10.4844 5.50778
2929 1 28.4972 11.3181 3.08265
1532 2 28.4353 9.62303 4.29777
2805 2 0.162683 12.2144 4.33539
2804 1 0.144472 13.9069 3.1203
2806 2 1.64859 14.7861 4.34103
2808 1 1.64151 13.0729 5.57255
2819 2 3.14634 12.211 4.36713
2818 1 3.19173 13.8974 3.14054
2820 2 4.56113 14.7474 4.31504
2822 1 4.63867 13.0945 5.61829
2832 1 6.11794 13.9524 3.16112
2833 2 6.11445 12.2243 4.39635
2834 2 7.66105 14.7534 4.34072
2836 1 7.57979 13.0993 5.62729
2846 1 9.08219 13.9368 3.13754
2860 1 12.0161 13.964 3.16122
2847 2 9.08514 12.218 4.39899
2848 2 10.5664 14.7954 4.41739
2850 1 10.5702 13.0677 5.63028
2861 2 12.0666 12.2144 4.39045
2862 2 13.5508 14.7896 4.39607
2864 1 13.5553 13.0668 5.60453
2874 1 15.0765 13.9769 3.14566
2875 2 15.0365 12.2204 4.37068
2876 2 16.5365 14.8026 4.3869
2878 1 16.5417 13.0687 5.60072
2888 1 18.0149 13.9493 3.10129
2902 1 20.9533 13.9962 3.10807
2889 2 18.0244 12.22 4.34729
2890 2 19.5093 14.8102 4.37037
2892 1 19.522 13.0718 5.58423
2903 2 21.0072 12.2257 4.32956
2904 2 22.4859 14.8063 4.33911
2906 1 22.4938 13.0664 5.53786
2916 1 23.9976 13.9939 3.08395
2917 2 23.9675 12.2191 4.30661
2918 2 25.4649 14.8058 4.32177
2920 1 25.4657 13.0625 5.53931
2931 2 26.9519 12.2093 4.28663
2932 2 28.4466 14.7877 4.30292
2934 1 28.4416 13.0676 5.51194
4205 2 0.142729 17.3448 4.34582
4207 1 0.113885 15.6365 5.55261
4203 1 1.65499 16.5345 3.13479
4219 2 3.13795 17.343 4.34917
4221 1 3.14858 15.6357 5.5635
4217 1 4.69068 16.518 3.16109
4231 1 7.59619 16.4993 3.17609
4233 2 6.10871 17.4371 4.33918
4235 5 6.09849 15.6501 5.50412
4245 1 10.5657 16.51 3.16275
4247 2 9.07094 17.3553 4.42491
4249 1 9.04387 15.6482 5.63922
4259 1 13.5538 16.4982 3.1348
4261 2 12.0691 17.3577 4.42346
4263 1 12.0628 15.6487 5.65637
4273 1 16.5368 16.5343 3.13751
4275 2 15.0456 17.374 4.41152
4277 1 15.0437 15.6504 5.62528
4287 1 19.4965 16.548 3.12352
4289 2 18.0218 17.3888 4.40732
4291 1 18.0317 15.6549 5.61756
4301 1 22.479 16.5328 3.08538
4303 2 20.9967 17.3882 4.38592
4305 1 21.0072 15.6582 5.59842
4315 1 25.4697 16.5512 3.06539
4317 2 23.9761 17.3877 4.35479
4319 1 23.9832 15.6553 5.56719
4329 1 28.4339 16.4623 3.07112
4331 2 26.9643 17.3859 4.3301
4333 1 26.9626 15.657 5.54886
4204 1 0.142613 19.032 3.07558
5607 1 0.1254 20.7749 5.56974
4206 2 1.62747 19.9136 4.33828
4208 1 1.58713 18.1909 5.54935
4218 1 3.14837 19.0487 3.08682
5621 1 3.12204 20.8075 5.56315
4220 2 4.62171 19.9299 4.36367
4222 1 4.65572 18.1828 5.5635
4232 1 6.122 19.0833 3.11491
5635 1 6.1045 20.7902 5.60802
4234 2 7.59876 19.9311 4.40343
4236 1 7.57783 18.1953 5.65014
4246 1 9.04352 19.0427 3.12247
5649 1 9.07123 20.8109 5.65174
4248 2 10.57 19.9528 4.27785
4250 1 10.5658 18.1985 5.67545
4260 1 12.1132 19.0371 3.1294
5663 1 12.0938 20.8232 5.65923
4262 2 13.5673 19.9413 4.4192
4264 1 13.5598 18.2263 5.65947
4274 1 15.048 19.0894 3.15126
5677 1 15.0664 20.8353 5.6389
4276 2 16.533 19.9688 4.42512
4278 1 16.5367 18.2395 5.64317
4288 1 18.0151 19.1206 3.15686
5691 1 18.0018 20.8446 5.66883
4290 2 19.5022 19.9657 4.42818
4292 1 19.5126 18.2396 5.64873
4302 1 20.9874 19.1142 3.1388
5705 1 20.999 20.8181 5.65789
4304 2 22.4828 19.9659 4.40019
4306 1 22.4927 18.2373 5.6071
4316 1 23.9564 19.1189 3.11076
4330 1 26.9034 19.1329 3.10124
5719 1 23.9858 20.816 5.62546
4318 2 25.4645 19.968 4.37481
4320 1 25.479 18.2357 5.57936
5733 1 26.9993 20.8112 5.59489
4332 2 28.3775 19.9216 4.28228
4334 1 28.4646 18.2632 5.54413
5603 1 1.63235 21.5774 3.09128
5605 2 0.146611 22.4964 4.30719
5608 1 1.63145 23.358 5.54583
5617 1 4.61792 21.6525 3.09407
5619 2 3.1257 22.4907 4.35534
5622 1 4.61352 23.3642 5.61602
5631 1 7.61844 21.6502 3.12402
5633 2 6.11362 22.5115 4.38058
5636 1 7.60078 23.3815 5.61516
5645 1 10.5985 21.677 3.10325
5647 2 9.09807 22.5248 4.39025
5650 1 10.5879 23.3859 5.6271
5659 1 13.5475 21.6164 3.15267
5661 2 12.0779 22.5377 4.39959
5664 1 13.5965 23.3857 5.61099
5675 2 14.971 22.4905 4.33441
5673 1 16.5204 21.7018 3.18255
5678 1 16.532 23.395 5.50412
5687 1 19.5029 21.6826 3.1597
5689 2 18.0833 22.5002 4.36752
5692 5 19.4784 23.3893 5.65531
5701 1 22.4758 21.6879 3.14646
5703 2 20.994 22.5403 4.4304
5706 1 22.4933 23.3905 5.65484
5715 1 25.4524 21.6998 3.12409
5717 2 23.9755 22.54 4.40996
5720 1 25.4804 23.3858 5.63316
5731 2 26.9658 22.5301 4.38014
5729 1 28.3909 21.6276 3.16433
5734 1 28.4799 23.3538 5.59465
7003 1 1.66559 26.7892 3.07006
7007 1 0.147352 25.9505 5.54606
5604 1 0.163006 24.2836 3.10028
5606 2 1.64664 25.0816 4.32992
7017 1 4.63084 26.8024 3.10805
5618 1 3.19097 24.2425 3.10932
7021 1 3.12118 25.95 5.57876
5620 2 4.62689 25.087 4.371
5632 1 6.13045 24.2365 3.11364
7031 1 7.56904 26.8366 3.13392
7035 1 6.11118 25.9557 5.60498
5634 2 7.60755 25.0976 4.37869
7049 1 9.09216 25.9588 5.60027
5646 1 9.0569 24.2088 3.17093
7045 1 10.5973 26.88 3.17872
5648 2 10.5867 25.105 4.38692
7059 1 13.6276 26.8384 3.15862
7063 1 12.0783 25.9611 5.61406
5660 5 12.0716 24.2538 3.22643
5662 2 13.5757 25.1041 4.40299
7073 1 16.5686 26.838 3.16652
7077 1 15.0697 25.9381 5.64544
5674 1 15.1072 24.2822 3.19353
5676 2 16.5497 25.1882 4.36859
7087 1 19.5216 26.8261 3.17256
5688 1 18.023 24.2506 3.20597
7091 1 18.0174 25.9443 5.67722
5690 2 19.5101 25.1084 4.44251
5702 1 20.9929 24.2553 3.16755
7101 1 22.4919 26.8299 3.1645
7105 1 21.0101 25.9712 5.65975
5704 2 22.4913 25.1138 4.43163
5716 1 23.9628 24.2633 3.15672
7115 1 25.4702 26.8443 3.15394
5730 1 26.9097 24.282 3.14145
7119 1 23.9943 25.9707 5.66951
5718 2 25.4682 25.1115 4.40679
7129 1 28.442 26.8222 3.10961
7133 1 26.9796 25.9549 5.61914
5732 2 28.4577 25.095 4.36898
7005 2 0.160614 27.6734 4.32032
7008 1 1.63416 28.5479 5.56684
7018 1 3.14156 29.3489 3.07483
7019 2 3.13357 27.6738 4.34496
7022 1 4.61273 28.5534 5.5777
7032 1 6.10068 29.357 3.10592
7033 2 6.11031 27.6801 4.36928
7036 1 7.59987 28.5506 5.61432
7046 1 9.09057 29.3914 3.114
7047 2 9.0953 27.6815 4.38518
7050 1 10.5772 28.5461 5.63929
7060 1 12.0924 29.3992 3.13512
7061 2 12.0825 27.6821 4.39975
7064 1 13.5691 28.538 5.64317
7074 1 15.0672 29.4026 3.16641
7075 2 15.064 27.681 4.42591
7078 1 16.5469 28.5416 5.65769
7088 1 18.0427 29.4029 3.1695
7089 2 18.0418 27.6848 4.44161
7092 1 19.5275 28.5488 5.66064
7102 1 21.0077 29.4056 3.15582
7103 2 21.012 27.6888 4.43279
7106 1 22.5084 28.5489 5.6695
7116 1 23.9894 29.3848 3.15627
7117 2 23.9913 27.6868 4.42301
7120 1 25.5062 28.5547 5.59843
7131 2 26.9725 27.592 4.44023
7130 5 26.9656 29.4188 3.092
7134 1 28.4627 28.5487 5.56895
11 1 0.137462 1.90214 8.01957
13 3 0.140195 0.191855 8.99493
9 2 1.63741 1.03035 6.76208
14 3 1.63069 2.74169 8.99474
25 1 3.12464 1.88839 8.03233
27 7 3.12581 0.17201 9.00053
23 2 4.62103 1.02907 6.76801
28 3 4.6122 2.74184 9.00404
39 1 6.10512 1.88546 8.04219
41 3 6.10617 0.170094 9.01279
37 2 7.59811 1.02793 6.77821
42 3 7.59137 2.73636 9.01818
53 1 9.085 1.88689 8.0516
55 3 9.0789 0.168393 9.01711
51 2 10.5782 1.02378 6.78665
56 7 10.5807 2.74105 9.0101
67 1 12.0699 1.8356 8.08972
69 3 12.0642 0.138448 9.04571
65 2 13.5652 1.02162 6.78916
70 3 13.5595 2.73646 9.0141
81 1 15.0585 1.88371 8.05954
83 3 15.0548 0.160846 9.01781
79 2 16.5477 1.01923 6.78812
84 3 16.5509 2.73814 9.02411
95 1 18.0363 1.86882 8.06286
97 3 18.0189 0.142826 9.01778
93 2 19.5301 1.02008 6.79213
98 3 19.5239 2.73949 9.01688
109 1 20.9654 1.90357 7.9994
111 7 21.0035 0.160331 8.97177
107 2 22.524 1.00032 6.77328
112 7 22.494 2.74196 8.97177
123 1 24.0339 1.84559 8.01643
125 3 24.0187 0.146424 8.99332
121 2 25.4136 1.03587 6.82246
126 3 25.4939 2.73042 8.98723
137 1 26.9616 1.90249 7.98403
139 7 26.9656 0.160331 8.97177
135 2 28.4847 1.05044 6.82796
140 3 28.4164 2.75003 8.98968
151 1 29.874 1.90217 8.00227
1413 3 0.146801 5.30304 8.99065
10 2 0.141075 3.60595 6.75213
12 1 1.63752 4.45534 8.02251
1427 3 3.11569 5.31116 9.00635
24 2 3.12797 3.60564 6.7623
26 1 4.6107 4.46233 8.04207
1441 3 6.09326 5.31166 9.02514
38 2 6.10715 3.6066 6.78068
40 1 7.58787 4.46025 8.06248
1455 3 9.05483 5.31875 9.062
52 2 9.08185 3.6085 6.79079
54 1 10.5298 4.48681 8.09797
1469 3 12.0727 5.30324 9.01257
66 2 12.0605 3.6025 6.73038
68 1 13.6092 4.47821 8.09432
1483 3 15.0745 5.31975 9.06209
80 2 15.0673 3.60609 6.80041
82 1 16.5644 4.47209 8.08475
1497 3 18.071 5.32143 9.0339
94 2 18.0434 3.60607 6.80294
96 1 19.5541 4.46347 8.06422
1511 3 21.0348 5.36028 9.01046
108 2 21.0218 3.61401 6.78464
110 1 22.5098 4.50658 8.03757
1525 3 23.9917 5.36297 8.99687
122 2 23.9891 3.5954 6.77366
124 1 25.4551 4.45618 8.03531
1539 3 26.9421 5.32571 8.99359
136 2 26.9478 3.58872 6.76106
138 1 28.4288 4.46658 8.02613
1553 3 29.9073 5.33253 8.99752
1411 1 0.17312 6.99972 8.00572
1410 2 0.133496 8.75473 6.77847
1409 2 1.63537 6.17766 6.76466
1414 3 1.61336 7.87234 9.00991
1425 1 3.11724 7.0349 8.0503
1424 2 3.11989 8.761 6.80608
1423 2 4.6156 6.18177 6.78394
1428 3 4.60322 7.8765 9.03146
1439 1 6.1062 7.03769 8.07343
1438 2 6.10361 8.7627 6.82442
1437 2 7.59638 6.18199 6.80139
1442 3 7.59923 7.87851 9.05024
1453 1 9.08334 7.02555 8.07722
1452 2 9.08843 8.75962 6.82876
1451 2 10.5776 6.18502 6.80418
1456 3 10.5686 7.87867 9.04988
1467 1 12.0698 7.04122 8.0824
1466 2 12.0789 8.76488 6.83871
1465 2 13.5708 6.18218 6.8066
1470 3 13.5749 7.87048 9.04825
1481 1 15.0307 7.00613 8.05908
1480 2 15.0737 8.75828 6.8294
1479 2 16.56 6.18708 6.81609
1484 7 16.532 7.90521 8.97177
1495 1 18.1057 7.0173 8.04656
1494 2 18.057 8.7584 6.79598
1493 2 19.5442 6.18775 6.79826
1498 3 19.5689 7.89172 9.01928
1508 2 20.9395 8.81365 6.85453
1509 1 21.043 7.0593 8.01319
1507 2 22.505 6.10404 6.84285
1512 3 22.5172 7.9129 8.99774
1523 1 23.9793 7.05903 7.9946
1522 2 24.0442 8.80279 6.82251
1521 2 25.4573 6.18418 6.75752
1526 3 25.4582 7.90302 8.9872
1537 1 26.9471 7.04242 8.02458
1536 2 26.9449 8.7597 6.75
1535 2 28.4326 6.18233 6.76412
1540 3 28.4316 7.90516 8.99354
2809 2 1.63906 11.3405 6.80144
1412 1 1.5645 9.58643 8.05175
2827 3 3.11748 10.4868 8.97177
2823 2 4.61656 11.3444 6.83383
1426 1 4.60161 9.5574 8.0373
2841 7 6.09849 10.4868 8.97177
2837 2 7.59329 11.3465 6.84912
1440 1 7.62877 9.58438 8.08023
2855 3 9.08657 10.4443 9.07046
2851 2 10.5814 11.3425 6.85914
1454 1 10.5467 9.58612 8.082
2869 3 12.0605 10.4868 8.97177
2865 2 13.5605 11.3415 6.84962
1468 1 13.6337 9.58205 8.0871
2883 3 15.0909 10.4712 9.05804
2879 2 16.5527 11.348 6.81701
1482 1 16.5724 9.67214 8.05214
2897 3 18.0503 10.495 9.04602
2893 2 19.532 11.3462 6.79255
1496 1 19.5257 9.62131 8.07136
2911 7 21.039 10.4698 9.0083
2907 2 22.4987 11.3346 6.76509
1510 1 22.5024 9.61149 8.00374
2925 3 23.9785 10.4683 8.99043
2921 2 25.4635 11.3387 6.7509
1524 1 25.4723 9.62186 8.02235
2939 3 26.955 10.482 8.99561
2935 2 28.4371 11.3416 6.75162
1538 1 28.4371 9.62101 8.02349
2811 1 0.121159 12.1666 8.02556
2810 2 0.144463 13.9199 6.78986
2812 1 1.63185 14.8267 8.03859
2814 7 1.62697 13.0685 8.97177
2825 1 3.13256 12.1915 7.98405
2824 2 3.12569 13.9246 6.80886
2826 1 4.58389 14.8318 8.04198
2828 3 4.60798 13.0685 8.97177
2839 1 6.14284 12.2246 8.07167
2838 2 6.09491 13.8515 6.90975
2840 1 7.5426 14.8047 8.09261
2842 3 7.59368 13.0855 9.05568
2853 1 9.07846 12.1791 8.12844
2852 2 9.06307 13.9271 6.85611
2854 1 10.509 14.7576 8.10166
2856 3 10.56 13.061 9.08256
2867 1 12.0697 12.2708 8.10506
2866 2 12.0635 13.9353 6.86449
2868 1 13.6113 14.768 8.10143
2870 3 13.5782 13.0681 9.07779
2881 1 15.0509 12.1938 8.10288
2880 2 15.0543 13.9203 6.84097
2882 1 16.5603 14.7595 8.10121
2884 3 16.5553 13.0376 9.05895
2895 1 18.0507 12.2091 8.07776
2894 2 18.0413 13.926 6.8282
2896 1 19.539 14.7923 8.10531
2898 3 19.5479 13.0563 9.04032
2909 1 21.0216 12.1947 8.05398
2908 2 21.0168 13.9243 6.80553
2910 1 22.5181 14.7647 8.06446
2912 3 22.5152 13.0417 9.02146
2923 1 23.9896 12.1894 8.03011
2922 2 23.9888 13.9186 6.77838
2924 1 25.485 14.7694 8.0465
2926 3 25.476 13.0453 9.00201
2937 1 26.9579 12.1947 8.02047
2936 2 26.9595 13.9208 6.76344
2938 1 28.4416 14.7721 8.03073
2940 3 28.4366 13.0551 8.99884
4213 3 0.126876 15.63 9.00782
4209 2 1.61293 16.4875 6.78263
4225 1 3.08928 17.3324 8.07165
4227 3 3.10461 15.6481 9.04492
4223 2 4.53392 16.5309 6.8676
4239 1 6.03231 17.3311 8.03881
4241 3 6.04547 15.656 9.05195
4237 2 7.65409 16.5491 6.92877
4253 1 9.11569 17.3348 8.12597
4255 3 9.04307 15.6188 9.07889
4251 2 10.5659 16.5111 6.86723
4267 1 12.0131 17.3969 8.08925
4269 7 12.0605 15.6501 8.97177
4265 2 13.5538 16.5031 6.87836
4281 1 15.0738 17.3083 8.11176
4283 3 15.0851 15.6066 9.08972
4279 2 16.5411 16.4987 6.85773
4295 1 17.9961 17.3366 8.11136
4297 3 18.0369 15.6262 9.07426
4293 2 19.5262 16.5136 6.85616
4309 1 21.0738 17.339 8.09627
4311 3 21.0517 15.6269 9.0567
4307 2 22.5095 16.5034 6.8209
4323 1 24.0208 17.3421 8.0775
4325 3 24.0069 15.6187 9.03415
4321 2 25.4857 16.5032 6.79297
4337 1 26.9844 17.3581 8.05508
4339 3 26.9684 15.6351 9.01374
4335 2 28.4518 16.5099 6.773
5613 7 0.136467 20.8134 8.97177
4212 5 1.58035 19.919 8.07712
4214 7 1.59662 18.2 9.01878
5627 7 3.08734 20.7499 9.01139
4224 6 3.11748 19.0923 6.73038
4226 1 4.68263 19.9748 8.15462
4228 3 4.57626 18.2067 9.02141
5641 3 6.15529 20.8349 9.1014
4238 2 6.10954 19.0741 6.84306
4240 1 7.60528 19.9827 8.0937
4242 7 7.58899 18.2317 8.97177
5655 3 9.06757 20.8289 9.08874
4252 2 9.07512 19.0799 6.88069
4254 1 10.5768 19.9628 8.15897
4256 3 10.5661 18.2294 9.09877
5669 3 12.0864 20.8277 9.09227
4266 2 12.0679 19.0878 6.88576
4268 1 13.5595 19.9897 8.10643
4270 7 13.551 18.2317 8.97177
5683 3 15.0398 20.8206 9.08769
4280 2 15.0401 19.0786 6.8764
4282 1 16.489 19.8919 8.14138
4284 3 16.5249 18.1766 9.10072
5697 3 18.0225 20.8134 8.97177
4294 2 18.0261 19.0912 6.87621
4296 1 19.5117 19.9457 8.04435
4298 3 19.513 18.2317 8.97177
5711 7 21.0035 20.8134 8.97177
4308 2 21.0089 19.0886 6.86681
4310 1 22.5481 19.901 8.10835
4312 3 22.5502 18.1898 9.07173
5725 3 24.0157 20.778 9.07303
4322 2 23.9965 19.0809 6.83292
4324 1 25.4936 19.9277 8.08677
4326 7 25.5057 18.2049 9.04463
5739 3 26.9892 20.7752 9.04674
4336 2 26.9792 19.0882 6.79745
4338 1 28.4683 19.9508 8.03585
4340 3 28.4686 18.2357 9.01017
5611 1 0.109275 22.5647 8.01033
5609 2 1.60083 21.642 6.79857
5614 3 1.58404 23.3732 9.01873
5625 1 3.03768 22.4665 8.0592
5623 2 4.61224 21.6574 6.83857
5628 3 4.60798 23.395 8.97177
5639 1 6.13793 22.5087 8.08028
5637 2 7.6076 21.6579 6.83845
5642 3 7.59144 23.3749 9.0705
5653 1 9.05522 22.5155 8.08839
5651 2 10.5842 21.6778 6.87126
5656 7 10.57 23.395 8.97177
5667 1 12.1209 22.513 8.09118
5665 2 13.5635 21.6657 6.84516
5670 3 13.5947 23.358 9.07312
5681 1 15.0805 22.5187 8.08783
5679 2 16.5437 21.5731 6.9546
5684 3 16.5274 23.3955 9.09128
5695 1 18.0254 22.5962 8.10968
5693 6 19.5031 21.6745 6.88188
5698 3 19.5152 23.4003 9.10722
5709 1 20.9933 22.5627 8.12575
5707 2 22.4907 21.6627 6.88041
5712 3 22.4801 23.3915 9.10105
5723 1 23.9747 22.5216 8.14952
5721 2 25.4808 21.6587 6.843
5726 3 25.4983 23.3564 9.08153
5737 1 26.9419 22.4833 8.08135
5735 2 28.3936 21.7026 6.88485
5740 3 28.4561 23.395 8.97177
7013 7 0.121888 25.9389 8.9953
5610 2 0.135351 24.23 6.76596
7009 2 1.62699 26.8173 6.79106
5612 1 1.63878 25.0955 8.06265
7027 3 3.1155 25.978 9.02987
5624 2 3.11714 24.2228 6.81405
7023 2 4.6063 26.8238 6.81402
5626 1 4.60044 25.1394 8.06228
7041 7 6.07215 25.9776 9.05097
5638 2 6.09873 24.2379 6.84134
7037 2 7.59051 26.8264 6.83783
5640 1 7.5807 25.1053 8.12241
7055 3 9.07744 25.9744 9.06659
5652 2 9.09114 24.2471 6.84941
7051 2 10.5758 26.8298 6.84998
5654 1 10.5749 25.1655 8.09127
7069 3 12.0663 25.9642 9.08795
5666 2 12.0711 24.2412 6.84844
7065 2 13.5686 26.8169 6.86091
5668 1 13.5451 25.0865 8.12526
5680 2 14.9843 24.2756 6.91761
7083 3 15.0379 25.9369 9.08933
7079 2 16.5463 26.8159 6.88441
5682 1 16.483 25.0723 8.08141
7097 7 18.0225 25.9766 8.97177
5694 6 18.0938 24.2948 6.94873
7093 2 19.5176 26.8283 6.89168
5696 1 19.5508 25.0959 8.12679
7111 3 21.01 25.9459 9.12015
5708 2 21.0046 24.2477 6.88231
7107 2 22.5158 26.8336 6.89857
5710 1 22.4756 25.0964 8.13089
7125 3 23.9846 25.9766 8.97177
5722 2 23.9974 24.2504 6.88622
7121 2 25.4995 26.8317 6.86282
5724 1 25.5627 25.0671 8.11882
7139 3 27.0242 25.9764 9.06517
5736 2 26.9955 24.2325 6.84663
7135 2 28.4817 26.8325 6.82319
5738 1 28.4954 25.1506 8.06642
7011 5 0.127698 27.6131 7.99001
7010 2 0.134824 29.4098 6.77276
7014 7 1.62697 28.5582 8.97177
7025 1 3.13823 27.6708 8.03929
7024 2 3.10592 29.4136 6.79021
7028 3 4.58533 28.5511 9.02691
7039 1 6.05205 27.6733 8.06529
7038 2 6.09194 29.4158 6.81312
7042 3 7.58899 28.5582 8.97177
7053 1 9.06742 27.6426 8.05447
7052 6 9.07603 29.41 6.85596
7056 7 10.57 28.5582 8.97177
7067 1 12.1095 27.6571 8.10079
7066 2 12.0621 29.3958 6.87207
7070 3 13.5586 28.5227 9.09819
7081 1 15.0639 27.6722 8.15137
7080 2 15.0538 29.4035 6.88689
7084 3 16.545 28.5522 9.10985
7095 1 18.0418 27.7466 8.13238
7094 2 18.0417 29.4185 6.89197
7098 3 19.5393 28.5542 9.11088
7109 1 20.9863 27.6491 8.14239
7108 2 21.0352 29.4105 6.88874
7112 7 22.494 28.5582 8.97177
7123 1 24.0792 27.7335 8.08143
7122 2 24.0147 29.4163 6.8604
7126 3 25.5339 28.5803 9.07024
7140 3 28.4923 28.5569 9.04992
7136 2 26.9903 29.4113 6.81763
7137 1 26.9985 27.6932 8.09705
8401 3 0.136467 31.1399 2.03646
8415 7 3.11748 31.1399 2.03646
8429 7 6.09849 31.1399 2.03646
8443 3 9.15526 31.1158 2.16421
8457 3 12.097 31.125 2.18063
8471 3 15.0509 31.1157 2.19681
8485 3 18.0233 31.1077 2.18471
8499 7 20.9943 31.1156 2.17515
8513 3 23.9886 31.0811 2.15942
8527 7 26.9626 31.1459 2.10895
8402 3 1.65549 33.7236 2.07154
8404 1 0.161881 34.6063 3.00827
8416 3 4.62138 33.7251 2.08736
8430 7 7.58899 33.7215 2.03646
8444 3 10.5665 33.6573 2.12495
8458 3 13.6087 33.6406 2.14885
8472 7 16.532 33.7215 2.03646
8486 3 19.5205 33.7156 2.16267
8500 3 22.4728 33.68 2.13699
8514 7 25.4751 33.7215 2.03646
8528 3 28.4986 33.6359 2.10443
9801 3 0.166221 36.3382 2.06542
9802 7 1.70288 38.847 2.02497
9815 7 3.11748 36.3031 2.03646
9816 3 4.62813 38.8951 2.07342
9817 1 4.67393 37.1965 3.05547
9829 3 6.11853 36.2964 2.08007
9830 3 7.62547 38.8318 2.07426
9831 1 7.63141 37.115 3.04037
9843 3 9.14094 36.2482 2.11015
9844 3 10.5981 38.8005 2.09481
9857 3 12.0843 36.3688 2.07172
9858 3 13.5596 38.8218 2.11634
9871 7 15.0415 36.3031 2.03646
9872 3 16.5693 38.8554 2.12903
9885 3 18.0619 36.2989 2.14472
9886 3 19.5351 38.8727 2.14019
9899 3 21.0099 36.2997 2.14965
9900 3 22.4944 38.8794 2.14024
9913 7 23.9846 36.3031 2.03646
9914 3 25.4649 38.894 2.11295
9927 7 26.9656 36.3031 2.03646
9928 7 28.4561 38.8848 2.03646
11201 7 0.164842 41.5126 2.02684
11215 3 3.11075 41.4428 2.05072
9818 1 3.11949 39.7333 3.0306
11229 3 6.10315 41.4605 2.04656
9832 1 6.14239 39.7395 3.0082
11243 7 9.0795 41.4664 2.03646
9846 1 9.11404 39.663 3.04679
11257 7 12.0605 41.4664 2.03646
11271 3 15.086 41.4365 2.09893
9874 1 15.0513 39.7103 3.05473
11285 3 18.0588 41.4369 2.11162
11299 3 21.025 41.4471 2.12057
11313 3 23.982 41.4619 2.12616
11327 3 26.9656 41.4664 2.03646
11202 3 1.64864 44.0295 2.05273
11203 1 1.6346 42.3121 3.02497
11204 1 0.193153 44.9279 3.01655
11216 3 4.61277 44.0149 2.03627
11218 1 3.13865 44.9083 2.99416
11217 1 4.60427 42.3022 3.00881
11230 3 7.5652 44.0253 2.03206
11232 1 6.08972 44.8493 3.02275
11231 1 7.56646 42.3322 3.02216
11246 1 9.03182 44.8975 3.00553
11244 7 10.57 44.048 2.03646
11258 3 13.6194 44.0207 2.06049
11260 1 12.1481 44.8845 3.03183
11259 1 13.6233 42.329 3.05683
11272 3 16.5744 44.0079 2.0831
11274 1 15.0903 44.8815 3.04208
11286 3 19.5478 44.0115 2.09228
11288 1 18.0575 44.875 3.04928
11300 3 22.5175 44.0243 2.10934
11302 1 21.0238 44.8921 3.05757
11314 3 25.4761 44.0342 2.10666
11328 3 28.4792 44.0447 2.10096
12601 3 0.156562 46.6273 2.03465
12603 1 1.62743 47.4997 3.01067
12615 3 3.10485 46.6338 2.03834
12617 1 4.56244 47.5028 3.02305
12629 7 6.09849 46.6296 2.03646
12631 1 7.66189 47.4991 3.01482
12643 3 9.10237 46.5996 2.03182
12645 1 10.6099 47.3898 3.00883
12657 3 12.1121 46.5761 2.04003
12659 1 13.588 47.4705 2.99172
12671 3 15.0819 46.5851 2.05436
12673 1 16.5688 47.417 3.02852
12685 3 18.0547 46.5774 2.05938
12687 1 19.5305 47.4699 3.01608
12699 3 21.0333 46.6032 2.07871
12701 1 22.523 47.4636 3.04264
12713 3 24.019 46.6068 2.08847
12715 1 25.4996 47.4767 3.05721
12727 7 26.9873 46.6043 2.10349
12602 3 1.63893 49.2131 2.03588
12604 1 0.145126 50.0669 2.99689
12616 3 4.59518 49.1923 2.02914
12618 1 3.12616 50.0846 2.99322
12630 3 7.59768 49.1901 2.02345
12632 1 6.09946 49.9929 3.00452
12644 7 10.57 49.2113 2.03646
12646 1 9.04647 50.0678 3.01208
12658 3 13.5855 49.1907 2.02939
12660 1 12.1316 50.0762 3.00354
12672 7 16.532 49.2113 2.03646
12674 1 15.0303 50.024 3.04119
12686 3 19.5673 49.1846 2.04525
12688 1 18.1149 50.1003 2.99961
12700 3 22.5452 49.1724 2.06483
12702 1 21.0523 50.0005 3.03247
12714 3 25.5264 49.1969 2.09458
12716 1 24.0207 50.0555 3.03228
12728 3 28.4693 49.2001 2.09758
14001 3 0.148966 51.7833 2.02683
14003 1 1.62262 52.6553 3.00306
14015 3 3.10965 51.8062 2.03054
14017 1 4.57077 52.6834 3.00471
14029 7 6.09849 51.7929 2.03646
14031 1 7.66188 52.6206 3.01826
14043 3 9.08985 51.7516 2.01103
14045 1 10.58 52.5784 2.98279
14057 3 12.0847 51.7713 2.01591
14059 1 13.5285 52.674 2.99198
14071 7 15.0415 51.7929 2.03646
14073 1 16.6045 52.6556 3.00224
14085 3 18.0791 51.8059 2.02523
14087 1 19.5318 52.6693 3.01601
14099 3 21.0035 51.7929 2.03646
14101 1 22.5981 52.6084 3.0476
14113 3 24.0803 51.7811 2.08412
14127 7 26.9112 51.7327 2.04239
15401 3 0.146162 56.9438 2.01556
14002 3 1.62279 54.3682 2.02754
14004 1 0.138212 55.2322 2.99318
15415 3 3.10682 56.9397 2.02328
14016 3 4.5684 54.3817 2.02009
14018 1 3.09646 55.2334 3.00873
14032 1 6.04438 55.2367 2.99197
15429 3 6.07055 56.9401 2.01695
14030 3 7.58899 54.3745 2.03646
15443 3 9.07383 56.9851 2.00564
14044 3 10.57 54.3745 2.03646
14046 1 9.09908 55.3072 3.00458
15457 7 12.0605 56.9561 2.03646
14058 3 13.5842 54.3752 2.01744
14060 1 12.135 55.2112 3.02066
15471 3 15.0717 56.9814 2.03703