ITEM: TIMESTEP
0
ITEM: NUMBER OF ATOMS
81200
ITEM: BOX BOUNDS pp pp pp
-9.3636180504234043e-02 2.9839313207652305e+02
-1.0294660574676427e-01 2.9975065857991450e+02
0.0000000000000000e+00 4.9031656433928198e+01
ITEM: ATOMS id type x y z
1 3 -0.0322956 -0.0175847 2.0875
2 3 1.46004 2.54341 2.09239
3 1 1.48149 0.813433 3.03457
15 3 2.95883 -0.0529465 2.10578
16 3 4.41049 2.57446 2.05791
17 1 4.39248 0.907043 3.04327
29 7 5.91341 -0.0319589 2.03646
30 3 7.42361 2.56275 2.08802
43 3 8.89581 -0.04116 2.09725
44 3 10.3838 2.52936 2.08004
45 1 10.3807 0.821106 3.06059
57 3 11.8513 -0.0557439 2.08815
58 3 13.3559 2.51334 2.07343
59 1 13.3564 0.794962 3.03752
71 3 14.8602 -0.0332906 2.07064
72 3 16.3106 2.54749 2.05657
73 1 16.3065 0.855782 3.05135
85 7 17.8529 -0.0319589 2.03646
86 3 19.2958 2.54796 2.02679
87 1 19.3539 0.883747 3.04846
99 7 20.8377 -0.0319589 2.03646
100 7 22.3302 2.55299 2.03646
101 1 22.3967 0.831578 3.05483
113 3 23.8245 0.219026 1.90823
114 3 25.3142 2.61457 1.96895
115 1 25.2784 0.951974 2.96352
127 7 26.8075 -0.0319589 2.03646
128 3 28.3078 2.57583 2.01717
129 1 28.3102 0.878149 3.00628
1401 3 -0.0499973 5.20063 2.03431
4 1 0.0129587 3.51792 2.99264
1415 7 2.92854 5.13793 2.03646
18 1 2.93807 3.3925 3.06118
1429 3 5.93365 5.15761 2.08327
32 1 5.91165 3.42156 3.02116
1443 3 8.88992 5.15989 2.0813
46 1 8.91437 3.43386 3.03645
1457 7 11.8831 5.13793 2.03646
60 1 11.8764 3.35231 3.05234
74 1 14.8305 3.4159 3.02307
1471 3 14.8541 5.1378 2.06125
1485 3 17.8045 5.10603 2.02502
88 1 17.8146 3.3965 3.00804
102 1 20.7385 3.39982 2.99889
1499 3 20.8567 5.14236 2.10875
1513 3 23.8295 5.13979 1.99549
116 1 23.8876 3.4454 2.98058
1527 3 26.7987 5.16182 1.99698
130 1 26.8062 3.43976 2.9567
1402 3 1.43649 7.78168 2.08268
1403 1 1.38678 6.07247 3.04636
1416 3 4.46363 7.74326 2.09035
1418 1 2.95747 8.57649 3.05249
1430 3 7.41529 7.74125 2.10342
1431 1 7.41188 6.01645 3.05959
1444 3 10.3705 7.73768 2.09269
1458 3 13.3808 7.72993 2.08346
1460 1 11.8803 8.56545 3.05405
1459 1 13.4155 6.02614 3.05748
1472 3 16.3328 7.68644 2.04495
1474 1 14.8802 8.58449 3.03257
1473 1 16.3487 5.97934 3.02696
1488 1 17.795 8.50006 3.02259
1486 3 19.3474 7.72788 2.10778
1487 1 19.2839 5.95745 2.96777
1500 7 22.3302 7.72288 2.03646
1502 1 20.8337 8.6522 2.9916
1501 1 22.394 5.99566 2.97575
1514 3 25.3073 7.7407 1.99874
1515 1 25.3063 6.01942 2.95878
1516 1 23.8592 8.62394 2.99034
1528 3 28.2827 7.72146 2.00061
1530 1 26.7983 8.55424 2.97802
1529 1 28.2767 6.01485 2.98236
2801 3 -0.0225732 10.3626 2.12669
2815 3 2.98448 10.2916 2.08587
2829 3 5.93313 10.3273 2.11136
2843 3 8.89964 10.3312 2.11523
2857 3 11.874 10.2897 2.102
2871 3 14.8357 10.3096 2.08059
2873 1 16.2932 11.2126 3.03867
2885 7 17.8529 10.3078 2.03646
2887 1 19.3862 11.2924 2.96579
2899 3 20.8077 10.326 2.01885
2901 1 22.3138 11.1355 2.98143
2913 3 23.8083 10.3212 2.0046
2915 1 25.2451 11.2437 2.97199
2927 7 26.8075 10.3078 2.03646
2929 1 28.3507 11.1518 3.00698
2802 7 1.43611 12.8928 2.03646
2816 3 4.46341 12.8937 2.12788
2830 3 7.39098 12.9089 2.13315
2844 3 10.3845 12.9029 2.11855
2858 7 13.3756 12.8928 2.03646
2872 3 16.3304 12.923 2.07296
2886 3 19.3322 12.9816 2.01427
2888 1 17.8344 13.7785 3.01653
2902 1 20.7781 13.8368 3.02465
2900 7 22.3302 12.8928 2.03646
2914 3 25.2687 12.9541 2.00535
2916 1 23.83 13.8302 3.00607
2930 1 26.7484 13.7893 2.98512
2928 7 28.2999 12.8928 2.03646
4201 7 -0.0563253 15.4777 2.03646
4215 7 2.92854 15.4777 2.03646
4229 3 5.94343 15.4752 2.14042
4243 3 8.90201 15.4695 2.12422
4257 3 11.8634 15.4756 2.12767
4271 3 14.8701 15.4972 2.10467
4285 3 17.8341 15.5179 2.08739
4287 1 19.3142 16.3803 3.06346
4299 3 20.7879 15.5448 2.05956
4301 1 22.3035 16.3671 3.01649
4313 3 23.7998 15.536 2.03563
4315 1 25.3022 16.3899 2.98071
4327 3 26.7745 15.4971 2.02013
4329 1 28.285 16.2997 2.98571
5601 3 -0.043512 20.571 2.08335
4202 3 1.44454 18.0335 2.10034
4204 1 -0.061972 18.8639 3.06012
5615 3 2.93833 20.6054 2.11122
4216 3 4.42926 18.0132 2.09205
4218 1 2.94389 18.8785 3.05946
5629 3 5.92491 20.6867 2.097
4230 3 7.37617 17.9952 2.14242
4232 1 5.87803 18.9545 2.99067
5643 3 8.91641 20.5953 2.1908
4244 3 10.4033 18.03 2.12716
4246 1 8.88444 18.8272 3.05247
5657 3 11.8683 20.5935 2.15173
4258 3 13.3966 18.037 2.11096
5671 3 14.8711 20.6444 2.15472
4272 3 16.3541 18.0875 2.12354
5685 3 17.8088 20.6765 2.15524
4286 3 19.3062 18.1063 2.1121
5699 3 20.792 20.6687 2.12246
4300 3 22.2732 18.1014 2.07981
5713 3 23.7546 20.68 2.08897
4316 1 23.7699 18.9525 3.03842
4314 3 25.237 18.1149 2.02584
5727 3 26.6844 20.6666 2.03096
4330 1 26.6867 18.96 2.99555
4328 7 28.2999 18.0627 2.03646
5602 7 1.43611 23.2325 2.03646
5616 3 4.45295 23.2251 2.11431
5630 3 7.42071 23.2547 2.10137
5631 1 7.42058 21.5525 3.04736
5644 7 10.3907 23.2325 2.03646
5658 7 13.3756 23.2325 2.03646
5672 3 16.3695 23.2463 2.16698
5686 3 19.3053 23.246 2.16349
5700 3 22.2801 23.2478 2.13024
5714 3 25.2339 23.2586 2.0943
5715 1 25.2457 21.5356 3.05262
5728 7 28.2999 23.2325 2.03646
5729 1 28.129 21.4933 2.99576
7001 3 -0.0344232 25.794 2.0845
7003 1 1.45886 26.6235 3.06435
7015 3 2.96392 25.7812 2.10764
7029 3 5.91929 25.8064 2.12102
7043 7 8.89828 25.8175 2.03646
7057 7 11.8831 25.8175 2.03646
7071 3 14.92 25.8086 2.15551
7085 3 17.8614 25.7897 2.17696
7099 3 20.8183 25.8154 2.15783
7113 3 23.7847 25.8233 2.13796
7127 3 26.701 25.798 2.0664
7129 1 28.2017 26.6217 2.99795
5744 1 29.7254 24.1068 2.96724
7002 3 1.44173 28.3217 2.07107
7004 1 -0.0206918 29.1821 3.06085
7018 1 2.89059 29.163 3.04675
7016 3 4.42804 28.3587 2.1266
7030 3 7.40757 28.3632 2.10324
7044 3 10.4103 28.4053 2.13856
7058 3 13.411 28.3923 2.15136
7072 3 16.3914 28.3891 2.16199
7086 3 19.3488 28.383 2.16679
7100 3 22.318 28.3927 2.15483
7114 3 25.1832 28.3278 2.06171
7128 3 28.4534 28.3248 2.08752
5 6 -0.0563253 1.69134 4.27785
7 1 -0.0583144 -0.0287463 5.54431
8 1 1.48918 2.56655 5.52808
19 2 2.93264 1.71392 4.32153
21 1 2.90783 -0.0115999 5.58168
22 1 4.42592 2.5662 5.53997
31 1 7.45076 0.862635 3.07035
33 2 5.91471 1.70123 4.29625
35 1 5.90565 -0.0354913 5.52877
36 1 7.40427 2.58721 5.51576
47 2 8.90991 1.7042 4.31574
49 1 8.91559 -0.0447698 5.5345
50 1 10.3662 2.5443 5.51619
61 2 11.8788 1.67846 4.30303
63 1 11.8823 -0.0311583 5.55007
64 1 13.4037 2.53644 5.50437
75 2 14.8499 1.69066 4.30472
77 1 14.8677 -0.0363168 5.53417
78 1 16.3657 2.54779 5.52441
89 2 17.847 1.68084 4.26716
91 1 17.8441 -0.0615786 5.46662
92 1 19.3535 2.57165 5.47714
103 2 20.8434 1.69367 4.25354
105 1 20.8808 -0.0708981 5.47336
106 1 22.3351 2.53601 5.50332
119 1 23.7806 -0.039993 5.48361
117 2 23.8281 1.72357 4.24524
120 1 25.3235 2.56674 5.43328
131 2 26.7894 1.80063 4.14017
133 5 26.8075 -0.0319589 5.50412
134 1 28.2648 2.53536 5.45544
147 1 29.723 -0.00443996 5.45713
1407 1 -0.0614947 5.17251 5.48878
6 2 1.45121 4.3146 4.27341
1421 1 2.93214 5.15248 5.50909
20 2 4.4256 4.29179 4.2979
1435 1 5.9169 5.14153 5.54357
34 2 7.40929 4.27371 4.31748
1449 1 8.90291 5.13766 5.54654
48 2 10.3929 4.28376 4.29209
1463 1 11.8869 5.16449 5.48905
62 2 13.3708 4.27671 4.28321
1477 1 14.8755 5.12884 5.5275
76 2 16.359 4.27044 4.29787
1491 1 17.836 5.11386 5.48621
90 2 19.3264 4.24901 4.27261
1505 1 20.8593 5.13644 5.51363
104 6 22.3302 4.27628 4.27785
1519 1 23.8243 5.18731 5.48846
118 2 25.3107 4.27903 4.25018
1533 1 26.7883 5.14699 5.46391
132 2 28.2968 4.29267 4.24776
1547 1 29.7526 5.12812 5.44701
1404 1 -0.0246373 8.6425 3.06874
1405 2 -0.0668857 6.87196 4.29875
1408 1 1.44073 7.73076 5.53783
1417 1 4.48142 6.03994 3.06514
1419 2 2.93815 6.87068 4.30135
1422 1 4.42657 7.72773 5.55264
1432 1 5.9346 8.60743 3.0739
1433 2 5.92501 6.8729 4.32371
1436 1 7.41013 7.7271 5.55954
1446 1 8.89863 8.60692 3.07059
1445 1 10.3434 6.03439 3.06771
1447 2 8.89942 6.87069 4.32464
1450 1 10.3995 7.72187 5.5539
1461 2 11.885 6.84643 4.3114
1464 1 13.3829 7.71705 5.53954
1475 2 14.8729 6.85578 4.30226
1478 1 16.3733 7.711 5.53672
1489 2 17.8393 6.84156 4.27976
1492 1 19.3662 7.73085 5.52785
1503 6 20.8377 6.86123 4.27785
1506 5 22.3302 7.72288 5.50412
1517 2 23.8871 6.8539 4.16451
1520 1 25.2432 7.71688 5.41678
1531 2 26.7899 6.87454 4.22983
1534 1 28.3016 7.72548 5.44468
2803 1 1.52583 11.1096 3.06568
2807 1 -0.0556555 10.2869 5.56193
1406 2 1.45699 9.44788 4.3228
2817 1 4.44118 11.1713 3.08336
2821 1 2.9392 10.3106 5.5796
1420 2 4.43581 9.45352 4.34174
2831 1 7.41339 11.1855 3.08927
2835 1 5.91727 10.3178 5.59195
1434 2 7.4125 9.45957 4.34589
2845 1 10.4026 11.176 3.07143
2849 1 8.9023 10.3154 5.57211
1448 2 10.3962 9.44896 4.33655
2859 1 13.3575 11.1129 3.08776
2863 1 11.8896 10.3029 5.58319
1462 2 13.3771 9.43637 4.32011
2877 1 14.8815 10.2969 5.53428
1476 2 16.3622 9.44122 4.2867
2891 1 17.8525 10.3011 5.50197
1490 6 19.3453 9.44617 4.27785
2905 1 20.8739 10.2873 5.49825
1504 2 22.3326 9.51897 4.16341
2919 1 23.7938 10.2882 5.45304
1518 2 25.2976 9.46859 4.20572
2933 1 26.7844 10.3542 5.40022
1532 2 28.2861 9.46162 4.21627
2805 6 -0.0563253 12.0311 4.27785
2806 2 1.45031 14.6174 4.3099
2808 1 1.49264 12.8974 5.55155
2804 1 -0.0744228 13.7763 3.08104
2819 2 2.94876 12.0367 4.3523
2818 1 2.98685 13.7146 3.10839
2820 2 4.35431 14.5694 4.26766
2822 1 4.44271 12.918 5.58493
2832 1 5.9199 13.7702 3.12429
2833 2 5.92159 12.0429 4.3617
2834 2 7.47842 14.5688 4.29675
2836 1 7.39311 12.92 5.58633
2846 1 8.89524 13.7501 3.08943
2860 1 11.833 13.7785 3.11198
2847 2 8.89819 12.0336 4.3554
2848 2 10.3839 14.6115 4.36896
2850 1 10.3882 12.8844 5.58171
2861 2 11.8849 12.0282 4.3383
2862 2 13.3787 14.6135 4.34865
2864 1 13.3797 12.8818 5.54845
2874 1 14.8955 13.7967 3.0833
2875 2 14.8683 12.0373 4.31251
2876 2 16.3548 14.6229 4.30607
2878 1 16.3471 12.8663 5.50155
2889 2 17.8601 12.0352 4.26289
2890 2 19.3258 14.6501 4.29001
2892 1 19.3456 12.8609 5.44706
2903 2 20.825 12.0578 4.23964
2904 2 22.3173 14.6429 4.25613
2906 1 22.3413 12.8811 5.42809
2917 2 23.7902 12.0566 4.23356
2918 2 25.3013 14.644 4.24119
2920 1 25.2998 12.9013 5.462
2931 2 26.7928 12.0377 4.21394
2932 2 28.2869 14.6247 4.22027
2934 1 28.2858 12.9067 5.43585
4205 2 -0.0606435 17.1661 4.33212
4207 1 -0.0905473 15.4903 5.50751
4203 1 1.44538 16.3603 3.10732
4217 1 4.43949 16.3149 3.0734
4219 2 2.93282 17.1677 4.31645
4221 1 2.95282 15.4637 5.52779
4231 1 7.44092 16.2876 3.12151
4233 6 5.91341 17.201 4.27785
4235 5 5.91341 15.4777 5.50412
4245 1 10.3823 16.3225 3.10961
4247 2 8.89405 17.1683 4.3887
4249 1 8.86385 15.4688 5.59799
4259 1 13.3691 16.3213 3.08179
4261 2 11.8832 17.1788 4.37265
4263 1 11.8815 15.468 5.60561
4273 1 16.3513 16.3609 3.07413
4275 2 14.8575 17.1991 4.34993
4277 1 14.8397 15.4558 5.54427
4289 2 17.8461 17.2068 4.34904
4291 1 17.8839 15.4917 5.50684
4303 2 20.8208 17.2107 4.33275
4305 1 20.8343 15.5171 5.51335
4317 2 23.8057 17.2231 4.28037
4319 1 23.818 15.4915 5.49016
4331 2 26.8029 17.2262 4.24482
4333 1 26.8055 15.4992 5.46107
5607 1 -0.070789 20.6048 5.55418
4206 2 1.42876 19.7435 4.31749
4208 1 1.39463 18.0175 5.52648
5621 1 2.93256 20.6351 5.53894
4220 2 4.42422 19.7661 4.32962
4222 1 4.45346 18.0178 5.54674
5635 1 5.89659 20.6356 5.59941
4234 6 7.40584 19.786 4.27785
4236 1 7.43297 18.0102 5.69797
5649 1 8.90675 20.6607 5.64442
4248 6 10.3907 19.786 4.27785
4250 1 10.3816 18.0201 5.62942
4260 1 11.9184 18.8592 3.07805
5663 1 11.9013 20.6514 5.6151
4262 2 13.376 19.7676 4.37132
4264 1 13.3745 18.0499 5.6071
4274 1 14.8583 18.917 3.10136
5677 1 14.8788 20.6595 5.59205
4276 2 16.3478 19.7847 4.3836
4278 1 16.3572 18.0877 5.56804
4288 1 17.8287 18.9503 3.1066
5691 1 17.8205 20.6722 5.62073
4290 2 19.3204 19.7965 4.37547
4292 1 19.338 18.0688 5.59607
4302 1 20.8015 18.9471 3.08197
5705 1 20.8218 20.6508 5.60164
4304 2 22.3011 19.7995 4.33657
4306 1 22.3232 18.0706 5.54068
5719 1 23.8102 20.6496 5.55658
4318 2 25.2784 19.8035 4.29898
4320 1 25.3155 18.0732 5.49924
5733 1 26.797 20.6683 5.54175
4332 6 28.2999 19.786 4.27785
4334 1 28.3169 18.0794 5.48049
5603 1 1.42906 21.4116 3.07423
5605 2 -0.0543034 22.325 4.28638
5608 1 1.46033 23.1765 5.50863
5617 1 4.4145 21.4998 3.06887
5619 2 2.92093 22.3324 4.34217
5622 1 4.42488 23.2028 5.59466
5633 2 5.91958 22.3591 4.35162
5636 1 7.41479 23.2221 5.58267
5645 1 10.4042 21.5181 3.07212
5647 2 8.90886 22.3751 4.35282
5650 1 10.4025 23.2258 5.59097
5659 1 13.3551 21.4462 3.11029
5661 2 11.8892 22.3734 4.36092
5664 1 13.4108 23.2181 5.5719
5675 2 14.7812 22.3193 4.29236
5673 1 16.3314 21.5339 3.14036
5678 5 16.3604 23.2325 5.50412
5687 1 19.3134 21.5177 3.11159
5689 2 17.898 22.3321 4.32522
5692 1 19.3003 23.2214 5.611
5701 1 22.2816 21.5252 3.08794
5703 2 20.8098 22.3757 4.37929
5706 1 22.3155 23.2245 5.60025
5717 2 23.7874 22.3759 4.34678
5720 1 25.3036 23.22 5.56453
5731 2 26.7629 22.3731 4.30264
5734 1 28.2841 23.2012 5.54914
7007 1 -0.0499946 25.8118 5.52306
5604 1 -0.0415183 24.1202 3.08911
5606 2 1.44988 24.9191 4.31505
5618 1 2.98939 24.0862 3.09649
7017 1 4.42981 26.6473 3.09617
7021 1 2.9277 25.7882 5.57036
5620 2 4.43221 24.9309 4.35379
5632 1 5.93255 24.0875 3.08724
7031 1 7.37602 26.6787 3.10601
7035 1 5.92455 25.7991 5.58182
5634 2 7.41889 24.9434 4.3497
7049 1 8.90817 25.8049 5.56777
5646 1 8.86815 24.0636 3.13526
7045 1 10.4119 26.7318 3.14468
5648 2 10.4114 24.9575 4.35748
7059 1 13.4461 26.6819 3.11467
7063 1 11.8722 25.7941 5.55147
5660 1 11.8854 24.0955 3.18939
5662 2 13.3923 24.9403 4.3571
7073 1 16.3875 26.6765 3.13768
7077 1 14.9149 25.7672 5.58186
5674 1 14.921 24.119 3.15699
5676 2 16.3596 25.0241 4.34473
5688 1 17.8358 24.0874 3.17175
7087 1 19.339 26.6688 3.13995
7091 1 17.8415 25.7803 5.64631
5690 2 19.3289 24.9459 4.40352
5702 1 20.8036 24.0961 3.12139
7101 1 22.3067 26.6758 3.12256
5716 1 23.7677 24.1038 3.09958
7105 1 20.8362 25.8066 5.61826
5704 2 22.3092 24.9522 4.3831
7115 1 25.2768 26.6803 3.09911
5730 1 26.7091 24.1103 3.06893
7119 1 23.8208 25.8053 5.6183
5718 2 25.2826 24.9456 4.34578
7133 1 26.81 25.7833 5.55216
5732 2 28.2655 24.9201 4.29645
7005 2 -0.0407911 27.4993 4.32988
7008 1 1.43763 28.3837 5.56938
7019 2 2.92767 27.506 4.33968
7022 1 4.41827 28.3649 5.59204
7032 1 5.94154 29.1783 3.0723
7033 2 5.92223 27.5179 4.35148
7036 1 7.40866 28.3958 5.59078
7046 1 8.88913 29.236 3.07554
7047 2 8.9043 27.5291 4.35259
7050 1 10.3852 28.4005 5.60136
7060 1 11.908 29.2497 3.10091
7061 2 11.9003 27.5396 4.35899
7064 1 13.3524 28.3994 5.55682
7074 1 14.8976 29.2385 3.12709
7075 2 14.8864 27.5198 4.37911
7078 1 16.3984 28.3661 5.61234
7088 1 17.8707 29.2442 3.14453
7089 2 17.8581 27.5293 4.42046
7092 1 19.3607 28.3877 5.63016
7102 1 20.835 29.2533 3.12565
7103 2 20.8373 27.53 4.39681
7106 1 22.3423 28.3873 5.63133
7116 1 23.8181 29.2346 3.11695
7117 2 23.8156 27.527 4.37753
7120 1 25.3421 28.3882 5.54924
7131 2 26.7944 27.4154 4.38592
7130 5 26.8075 29.2641 3.092
7134 1 28.2801 28.3523 5.55563
11 1 -0.0665673 1.67201 8.05073
13 3 -0.0750788 -0.0204129 9.01249
9 2 1.45095 0.839307 6.77197
14 3 1.42126 2.57308 8.9783
25 1 2.92647 1.7115 8.04221
27 3 2.94783 0.00570539 9.03139
23 2 4.41636 0.848463 6.78435
28 3 4.39426 2.58759 9.02543
39 1 5.86283 1.73415 8.06911
41 3 5.92594 -0.0015183 8.99957
37 6 7.40584 0.829689 6.73038
42 3 7.40706 2.54844 8.98276
53 1 8.96036 1.73846 8.07988
55 3 8.8963 -0.00279032 9.00007
51 2 10.3993 0.837158 6.77815
56 3 10.443 2.58577 9.01842
67 1 11.8997 1.65384 8.0722
69 3 11.8926 -0.0409079 9.03301
65 2 13.3829 0.830879 6.7673
70 3 13.3909 2.56118 8.98693
81 1 14.8809 1.70142 8.02554
83 3 14.8856 -0.0179508 8.98992
79 2 16.3637 0.828343 6.74748
84 3 16.3585 2.56977 9.00122
95 1 17.8208 1.70701 8.04285
97 3 17.8683 -0.041894 8.95194
93 6 19.3453 0.829689 6.73038
98 3 19.3723 2.51298 8.95118
109 1 20.847 1.73685 7.93645
111 7 20.8377 -0.0319589 8.97177
107 2 22.3562 0.839049 6.68933
112 7 22.3302 2.55299 8.97177
123 1 23.8462 1.68939 7.94269
125 3 23.8705 -0.0206931 8.89532
121 6 25.3151 0.829689 6.73038
126 3 25.3339 2.54263 8.89527
151 1 29.7185 1.71383 7.9226
137 1 26.8479 1.74682 7.93598
139 7 26.8075 -0.0319589 8.97177
135 2 28.3137 0.887947 6.73342
140 3 28.285 2.57847 8.93187
1413 3 -0.0539526 5.10902 8.94804
10 6 -0.0563253 3.41463 6.73038
12 1 1.49519 4.30375 8.04007
1427 3 2.94834 5.15666 9.01945
24 2 2.93338 3.42528 6.74899
26 1 4.42266 4.29328 8.03663
1441 3 5.9149 5.14038 9.00687
38 2 5.90908 3.42941 6.77161
40 1 7.40438 4.28077 8.04295
1455 3 8.87348 5.14473 9.03544
52 2 8.90168 3.42744 6.77447
54 1 10.3544 4.31509 8.07761
1469 3 11.905 5.13084 8.97927
66 6 11.8831 3.41463 6.73038
68 1 13.4312 4.29562 8.05264
1483 3 14.9012 5.13837 9.01215
80 2 14.8858 3.41506 6.75707
82 1 16.3868 4.28728 8.03125
1497 3 17.9136 5.13391 8.94954
94 2 17.8605 3.4074 6.74023
96 1 19.3837 4.21921 8.01214
1511 3 20.854 5.18669 8.9018
108 2 20.8561 3.42627 6.71325
110 1 22.3474 4.32773 7.96293
1525 3 23.8324 5.18901 8.91403
122 2 23.8254 3.42401 6.69621
124 1 25.2941 4.27477 7.95629
1539 3 26.7833 5.10953 8.94296
136 2 26.7985 3.42117 6.68292
138 1 28.2769 4.28659 7.95339
1411 1 -0.0248937 6.8181 7.98573
1410 2 -0.069062 8.58584 6.75787
1409 2 1.44278 6.00521 6.74947
1414 3 1.41403 7.69035 8.99283
1425 1 2.92853 6.86608 8.03774
1424 2 2.92714 8.58507 6.78933
1423 2 4.42407 6.0061 6.76909
1428 3 4.42094 7.7064 9.01023
1439 1 5.92178 6.86428 8.05105
1438 2 5.91608 8.58553 6.79753
1437 2 7.40912 5.99995 6.77819
1442 3 7.42016 7.70556 9.01935
1453 1 8.90139 6.84844 8.04546
1452 2 8.90456 8.57845 6.7913
1451 2 10.3942 6.00215 6.77183
1456 3 10.393 7.70164 9.00849
1467 1 11.8925 6.86298 8.039
1466 2 11.8983 8.58045 6.78954
1465 2 13.3886 5.99472 6.7599
1470 3 13.4042 7.68962 8.99648
1481 1 14.8544 6.82078 8.00287
1480 2 14.895 8.56685 6.76711
1479 2 16.3723 5.99511 6.75451
1484 7 16.3604 7.72288 8.97177
1495 1 17.8945 6.8485 7.99845
1494 2 17.875 8.56469 6.73533
1493 6 19.3453 5.99958 6.73038
1498 3 19.4059 7.68447 8.92697
1508 2 20.7835 8.63279 6.78766
1509 1 20.9189 6.90287 7.93904
1507 2 22.3477 5.93343 6.76915
1512 3 22.3674 7.73787 8.93428
1523 1 23.822 6.88811 7.91582
1522 2 23.8764 8.63795 6.7489
1521 2 25.2878 6.00244 6.67399
1526 3 25.3024 7.74337 8.89518
1537 1 26.7851 6.81142 7.99303
1536 6 26.8075 8.58452 6.73038
1535 2 28.2743 6.00745 6.69415
1540 3 28.2417 7.75705 8.92645
1551 1 29.731 6.91156 7.9958
2809 2 1.44579 11.155 6.79205
1412 1 1.36545 9.40592 8.03808
2827 7 2.92854 10.3078 8.97177
2823 2 4.42644 11.1682 6.80628
1426 1 4.41524 9.38552 8.01342
2841 7 5.91341 10.3078 8.97177
2837 2 7.40816 11.1684 6.8105
1440 1 7.44731 9.40868 8.04461
2855 3 8.91029 10.2677 9.02787
2851 2 10.4007 11.1601 6.81115
1454 1 10.3673 9.40689 8.0369
2869 7 11.8831 10.3078 8.97177
2865 2 13.3847 11.1535 6.79084
1468 1 13.4585 9.39641 8.02707
2883 3 14.9217 10.2792 8.99394
2879 2 16.389 11.1432 6.73484
1482 1 16.3994 9.47449 7.98627
2897 3 17.8768 10.2842 8.99305
2893 2 19.3585 11.1464 6.71844
1496 1 19.355 9.42706 8.00631
2911 3 20.8661 10.2632 8.95881
2907 2 22.32 11.1481 6.67871
1510 1 22.3386 9.43694 7.94019
2925 3 23.7947 10.3216 8.93369
2921 2 25.2946 11.1812 6.67171
1524 1 25.2685 9.48446 7.97195
2939 3 26.7837 10.3243 8.91228
2935 2 28.282 11.1866 6.67771
1538 1 28.3152 9.49262 7.99394
2811 1 -0.07737 11.9349 8.04491
2810 6 -0.0563253 13.7544 6.73038
2812 1 1.49144 14.6729 8.03538
2814 7 1.43611 12.8928 8.97177
2825 1 2.94275 12.0174 7.9582
2824 2 2.93362 13.7465 6.76976
2826 1 4.40112 14.6642 8.00817
2828 7 4.42098 12.8928 8.97177
2839 1 5.9591 12.0517 8.03488
2838 2 5.90893 13.6783 6.87136
2840 1 7.36219 14.6307 8.05341
2842 3 7.41522 12.9099 9.01344
2853 1 8.89744 12.0012 8.08394
2852 2 8.88151 13.7479 6.81228
2854 1 10.331 14.5755 8.05434
2856 3 10.3853 12.8776 9.03307
2867 1 11.8917 12.0857 8.05165
2866 2 11.8834 13.7512 6.81238
2868 1 13.4274 14.5813 8.04472
2870 3 13.4077 12.8782 9.01627
2881 1 14.8757 12 8.03652
2880 2 14.8701 13.7297 6.7791
2882 1 16.3364 14.5444 8.10235
2884 3 16.3857 12.8177 9.00562
2895 1 17.8723 11.9723 8.02318
2894 6 17.8529 13.7544 6.73038
2896 1 19.376 14.7216 8.16009
2898 3 19.3723 12.8979 8.90197
2909 1 20.8457 11.9572 7.99516
2908 6 20.8377 13.7544 6.73038
2910 1 22.4043 14.6367 8.02692
2912 3 22.3244 12.8795 8.91472
2923 1 23.8165 12.0298 7.94914
2922 2 23.8277 13.7592 6.70118
2924 1 25.3309 14.6119 7.96768
2926 3 25.3078 12.884 8.9163
2937 1 26.7946 12.0372 7.93863
2936 2 26.8001 13.7625 6.68212
2938 1 28.2826 14.6177 7.94473
2940 3 28.2713 12.9027 8.91642
4213 3 -0.0734679 15.4325 8.94234
4209 2 1.42632 16.3185 6.7557
4225 1 2.90541 17.1704 8.0383
4227 3 2.94056 15.4952 9.02706
4223 2 4.33948 16.3678 6.84163
4239 1 5.84767 17.1625 8.0185
4241 3 5.86713 15.4793 9.01838
4237 2 7.48211 16.3886 6.90386
4253 1 8.93996 17.1565 8.0954
4255 3 8.86862 15.4351 9.03844
4251 2 10.3861 16.3312 6.82216
4267 1 11.8327 17.2175 8.03917
4269 7 11.8831 15.4777 8.97177
4265 2 13.3632 16.3237 6.8246
4281 1 14.8372 17.1519 8.09872
4283 3 14.8849 15.4341 9.04463
4279 6 16.3604 16.3394 6.73038
4297 3 17.8018 15.4869 9.01739
4295 1 17.8705 17.2158 8.09767
4293 2 19.3654 16.363 6.80577
4309 1 20.9243 17.1904 8.03515
4311 3 20.9419 15.4967 9.0257
4307 2 22.3521 16.3467 6.75125
4323 1 23.8703 17.1855 8.00334
4325 3 23.8804 15.4752 8.98382
4321 2 25.3282 16.3435 6.71093
4337 1 26.8321 17.2021 7.96616
4339 3 26.8136 15.4826 8.93058
4335 2 28.3075 16.3612 6.66911
4353 3 29.746 15.4764 8.94346
5613 7 -0.0563253 20.6476 8.97177
4212 1 1.38849 19.7477 8.05824
4214 3 1.40768 18.0235 8.99082
5627 3 2.9037 20.5773 8.9804
4224 6 2.92854 18.9243 6.73038
4226 1 4.49935 19.8052 8.12177
4228 3 4.38957 18.041 8.99527
5641 3 5.96573 20.6701 9.07388
4238 2 5.92487 18.9076 6.83584
4240 1 7.42114 19.8161 8.07549
4242 7 7.40584 18.0627 8.97177
5655 3 8.89292 20.6628 9.0561
4252 2 8.8899 18.8996 6.85479
4254 1 10.3908 19.7849 8.11821
4256 3 10.3949 18.0524 9.05971
5669 3 11.9033 20.6453 9.04989
4266 2 11.8821 18.911 6.83722
4268 1 13.3743 19.8116 8.0573
4270 7 13.3756 18.0627 8.97177
5683 3 14.8573 20.6359 9.04051
4280 2 14.8511 18.9059 6.82398
4282 1 16.3051 19.7166 8.08408
4284 3 16.3362 17.9963 9.03215
5697 7 17.8529 20.6476 8.97177
4294 2 17.8535 18.9283 6.82365
4296 1 19.3434 19.7817 7.99192
4298 7 19.3453 18.0627 8.97177
5711 7 20.8377 20.6476 8.97177
4308 2 20.8428 18.9262 6.80743
4310 1 22.3898 19.7416 8.04184
4312 3 22.4063 18.033 9.00792
5725 3 23.862 20.6112 9.00577
4322 2 23.8338 18.9182 6.76035
4324 1 25.3362 19.7651 8.01019
4326 3 25.3589 18.0432 8.96825
5739 3 26.8323 20.6089 8.97236
4336 2 26.8169 18.9269 6.72305
4338 1 28.3124 19.7922 7.95642
4340 3 28.3147 18.0754 8.92737
5611 1 -0.0901795 22.3405 8.02879
5609 2 1.41049 21.4651 6.77937
5614 3 1.38729 23.2044 8.98064
5625 1 2.84834 22.2967 8.03352
5623 2 4.43659 21.4848 6.80272
5628 7 4.42098 23.2325 8.97177
5639 1 5.9565 22.3431 8.05119
5637 2 7.4243 21.4974 6.81661
5642 3 7.41252 23.2099 9.03787
5653 1 8.87412 22.3486 8.05387
5651 2 10.3872 21.5035 6.82855
5656 7 10.3907 23.2325 8.97177
5667 1 11.9353 22.3331 8.05362
5665 2 13.3763 21.4905 6.80128
5670 3 13.4131 23.1502 9.05358
5681 1 14.8995 22.3367 8.04629
5679 2 16.361 21.3978 6.90673
5684 3 16.3517 23.2079 9.04778
5695 1 17.8538 22.4193 8.06433
5693 2 19.3289 21.5053 6.8312
5698 3 19.3463 23.2227 9.0591
5709 1 20.8263 22.3921 8.07443
5707 2 22.3213 21.4967 6.81993
5712 3 22.3187 23.2164 9.04542
5723 1 23.8123 22.3553 8.0843
5721 2 25.3212 21.489 6.76335
5726 3 25.3373 23.1868 9.01664
5737 1 26.7796 22.3188 8.01073
5735 2 28.2128 21.5513 6.82107
5740 7 28.2999 23.2325 8.97177
7013 3 -0.0646738 25.7542 8.96947
5610 6 -0.0563253 24.0942 6.73038
7009 2 1.44291 26.6573 6.79092
5612 1 1.52074 24.9652 8.10879
7027 3 2.98719 25.8377 9.05298
5624 2 2.93907 24.0622 6.80329
7023 2 4.42353 26.6748 6.79374
5626 1 4.43381 24.9807 8.04486
7041 3 5.90715 25.82 9.02873
5638 2 5.9181 24.0775 6.81557
7037 2 7.40747 26.6687 6.81026
5640 1 7.40594 24.9415 8.09145
7055 3 8.90288 25.8136 9.03192
5652 2 8.91012 24.0874 6.81514
7051 2 10.3838 26.6786 6.81225
5654 1 10.3989 25.0078 8.05122
7069 3 11.9009 25.8184 9.02125
5666 2 11.8881 24.0692 6.81141
7065 6 13.3756 26.6791 6.73038
5668 1 13.3679 24.8608 8.11986
5680 2 14.8044 24.0949 6.8781
7083 3 14.863 25.7209 9.07036
7079 2 16.3872 26.6444 6.85733
5682 1 16.3092 24.8856 8.04042
7097 7 17.8529 25.8175 8.97177
5694 2 17.9218 24.1229 6.90898
7093 2 19.3537 26.6613 6.85655
5696 1 19.384 24.9231 8.08709
7111 3 20.8479 25.771 9.07626
5708 2 20.8333 24.079 6.83551
7107 2 22.3503 26.6657 6.85434
5710 1 22.3113 24.9245 8.08125
7125 7 23.8226 25.8175 8.97177
5722 2 23.8284 24.0827 6.8283
7121 2 25.3354 26.6611 6.807
5724 1 25.4039 24.8976 8.05489
7139 3 26.8703 25.8 9.00025
5736 2 26.838 24.0601 6.76968
7135 2 28.3276 26.6622 6.75245
5738 1 28.3415 24.983 7.99397
7011 1 -0.0644057 27.4431 7.98954
7010 2 -0.0636038 29.2396 6.77632
7014 7 1.43611 28.4024 8.97177
7025 1 2.9622 27.5156 8.03728
7024 2 2.91233 29.2464 6.79579
7028 3 4.41375 28.3965 9.01702
7039 1 5.8737 27.5174 8.04604
7038 2 5.90227 29.2581 6.80438
7042 7 7.40584 28.4024 8.97177
7053 1 8.88246 27.4842 8.0234
7052 2 8.88195 29.2568 6.82598
7056 7 10.3907 28.4024 8.97177
7067 1 11.8653 27.5406 8.09077
7066 2 11.8559 29.2706 6.82468
7070 3 13.3992 28.357 8.99081
7081 1 14.9784 27.4721 8.22037
7080 6 14.868 29.2641 6.73038
7084 3 16.4362 28.4095 9.11192
7095 1 17.8959 27.5774 8.10252
7094 2 17.893 29.2556 6.86564
7098 3 19.3918 28.385 9.08212
7109 1 20.8307 27.4776 8.10432
7108 2 20.8748 29.2463 6.85681
7112 7 22.3302 28.4024 8.97177
7123 1 23.9213 27.5612 8.0349
7122 2 23.8545 29.2492 6.82003
7126 3 25.3823 28.4018 9.01989
7140 3 28.3368 28.3732 8.99588
7136 2 26.8359 29.2284 6.76925
7137 1 26.8424 27.5187 8.03599
8401 7 -0.0563253 30.9874 2.03646
8415 7 2.92854 30.9874 2.03646
8429 7 5.91341 30.9874 2.03646
8443 3 8.91082 30.9541 2.1096
8457 3 11.909 30.9941 2.18129
8471 3 14.9186 30.9432 2.14112
8485 3 17.8623 30.9507 2.16259
8499 3 20.8273 30.9671 2.15122
8513 3 23.8245 30.9382 2.13158
8527 3 26.8128 31.0629 2.05188
8529 1 28.3139 31.8578 3.01286
8402 3 1.45614 33.5758 2.07041
8404 1 -0.0396352 34.4524 3.00899
8416 3 4.42212 33.6143 2.06894
8418 1 2.93021 34.4046 3.06407
8430 7 7.40584 33.5723 2.03646
8444 3 10.3208 33.4852 2.08234
8458 3 13.4691 33.4683 2.12404
8472 7 16.3604 33.5723 2.03646
8486 3 19.3521 33.5686 2.15118
8500 3 22.3026 33.5366 2.11953
8514 7 25.3151 33.5723 2.03646
8528 3 28.3407 33.5484 2.04661
8530 1 26.9133 34.3585 3.05585
9801 3 -0.0290148 36.1833 2.06433
9802 3 1.51582 38.6941 2.02132
9815 7 2.92854 36.1573 2.03646
9816 3 4.44249 38.751 2.07739
9817 1 4.48033 37.0537 3.06121
9829 3 5.92544 36.1608 2.08054
9830 3 7.44475 38.6896 2.08362
9831 1 7.44156 36.9697 3.04386
9843 3 8.93791 36.0947 2.09829
9844 3 10.4282 38.6435 2.13282
9857 3 11.901 36.2088 2.10983
9858 3 13.3682 38.6575 2.15707
9871 7 14.868 36.1573 2.03646
9872 3 16.3918 38.7049 2.13984
9885 3 17.8898 36.1506 2.14479
9886 3 19.3581 38.7297 2.14749
9899 3 20.837 36.1577 2.14502
9900 3 22.3195 38.7415 2.14098
9913 7 23.8226 36.1573 2.03646
9914 3 25.2984 38.7589 2.10825
9927 7 26.8075 36.1573 2.03646
9928 7 28.2999 38.7422 2.03646
11201 3 -0.019397 41.3577 2.00651
11215 3 2.93788 41.2914 2.04628
9818 1 2.92833 39.5843 3.02973
11229 3 5.92661 41.3103 2.05421
9832 1 5.95688 39.59 3.017
11243 7 8.89828 41.3272 2.03646
11257 7 11.8831 41.3272 2.03646
9860 1 11.8881 39.5793 3.04963
11271 3 14.9083 41.2824 2.11357
11285 3 17.8839 41.289 2.12351
11299 3 20.8485 41.3042 2.12873
11313 3 23.8126 41.3212 2.12619
11327 7 26.8075 41.3272 2.03646
11202 3 1.48308 43.8569 1.9896
11203 1 1.45038 42.1615 3.00209
11204 1 0.053072 44.7437 2.95326
11216 3 4.44592 43.8646 2.04366
11218 1 2.92884 44.7354 2.95402
11217 1 4.42556 42.1512 3.01379
11230 3 7.41112 43.8521 2.01904
11232 1 5.95846 44.6714 3
11231 1 7.39429 42.1726 3.03192
11246 1 8.86081 44.74 3.00536
11244 7 10.3907 43.9121 2.03646
11258 3 13.4448 43.8725 2.07643
11260 1 11.9737 44.7313 3.05246
11272 3 16.3989 43.8611 2.0982
11274 1 14.9151 44.7277 3.06393
11286 3 19.3719 43.8644 2.10299
11300 3 22.3453 43.878 2.11016
11302 1 20.8528 44.7445 3.06143
11314 3 25.3121 43.8902 2.10104
11328 3 28.3296 43.9055 2.09488
11330 1 26.8186 44.7386 3.05124
11329 1 28.3684 42.1979 3.06242
12601 3 -0.0420093 46.4756 2.03369
12603 1 1.4375 47.3579 2.98869
12615 3 2.92647 46.484 2.04005
12617 1 4.38456 47.4014 2.98045
12629 7 5.91341 46.497 2.03646
12631 1 7.48451 47.3428 3.01259
12643 3 8.92913 46.4439 2.03452
12645 1 10.4358 47.2351 3.01259
12657 3 11.9401 46.4168 2.05047
12659 1 13.4143 47.3118 3.00391
12671 3 14.9089 46.4264 2.06818
12673 1 16.3946 47.2638 3.03975
12685 3 17.879 46.4238 2.06896
12687 1 19.3586 47.3187 3.01791
12699 3 20.859 46.4522 2.07688
12701 1 22.352 47.3166 3.03197
12713 3 23.8449 46.4571 2.07484
12715 1 25.3308 47.3318 3.03082
12727 3 26.8272 46.4599 2.08887
12729 1 28.3069 47.3414 3.0486
12602 3 1.45276 49.08 2.02876
12616 3 4.44346 49.0485 1.96374
12618 1 2.99249 49.9216 2.92686
12630 3 7.42453 49.0277 2.0102
12632 1 5.92568 49.8488 2.97517
12644 7 10.3907 49.082 2.03646
12646 1 8.86884 49.911 2.99997
12658 3 13.4174 49.0315 2.04174
12660 1 11.9227 49.8975 2.9671
12672 7 16.3604 49.082 2.03646
12674 1 14.8942 49.8363 3.02681
12686 3 19.3969 49.0269 2.03598
12688 1 17.9488 49.9438 2.99463
12700 3 22.3668 49.0202 2.0451
12702 1 20.88 49.8539 3.01678
12714 3 25.324 49.0379 2.04031
12716 1 23.8426 49.914 3.00167
12728 3 28.3062 49.0645 2.08982
12730 1 26.7776 49.9061 3.00524
14001 3 -0.0402071 51.6512 2.00431
14003 1 1.43267 52.5756 2.93121
14015 3 2.91632 51.6659 2.01101
14017 1 4.38498 52.5434 2.97263
14029 7 5.91341 51.6669 2.03646
14031 1 7.44707 52.4442 2.9792
14043 3 8.90483 51.596 2.00068
14045 1 10.4321 52.4015 2.93211
14057 3 11.8971 51.5825 1.96412
14059 1 13.3023 52.5585 2.87838
14071 7 14.868 51.6669 2.03646
14073 1 16.4351 52.4239 2.94477
14085 3 17.9319 51.6385 2.00083
14087 1 19.4061 52.5011 2.95809
14099 7 20.8377 51.6669 2.03646
14101 1 22.4226 52.4758 3.01568
14113 3 23.9033 51.6419 2.05631
14115 1 25.3657 52.5153 3.04769
14127 3 26.7127 51.5746 1.9978
15401 3 -0.0514937 56.8242 2.0027
14002 3 1.4464 54.2539 1.94053
14004 1 -0.0145722 55.085 2.92674
15415 3 2.90876 56.7952 1.94092