ITEM: TIMESTEP
100000
ITEM: NUMBER OF ATOMS
81200
ITEM: BOX BOUNDS pp pp pp
4.3870315488677242e-01 2.9786079274113689e+02
4.3199958997946292e-01 2.9921571238418329e+02
0.0000000000000000e+00 4.9031656433928198e+01
ITEM: ATOMS id type x y z
1 7 0.475881 0.502734 2.03646
2 7 1.96299 3.07846 2.03646
15 7 3.4501 0.502734 2.03646
16 7 4.93721 3.07846 2.03646
29 7 6.42432 0.502734 2.03646
30 7 7.91143 3.07846 2.03646
43 7 9.39854 0.502734 2.03646
44 7 10.8857 3.07846 2.03646
57 7 12.3728 0.502734 2.03646
58 7 13.8599 3.07846 2.03646
71 7 15.347 0.502734 2.03646
72 7 16.8341 3.07846 2.03646
85 7 18.3212 0.502734 2.03646
86 7 19.8083 3.07846 2.03646
99 7 21.2954 0.502734 2.03646
100 7 22.7825 3.07846 2.03646
113 7 24.2696 0.502734 2.03646
114 7 25.7568 3.07846 2.03646
127 7 27.2439 0.502734 2.03646
128 7 28.731 3.07846 2.03646
1401 7 0.475881 5.65418 2.03646
1415 7 3.4501 5.65418 2.03646
1429 7 6.42432 5.65418 2.03646
1443 7 9.39854 5.65418 2.03646
1457 7 12.3728 5.65418 2.03646
1471 7 15.347 5.65418 2.03646
1485 7 18.3212 5.65418 2.03646
1499 7 21.2954 5.65418 2.03646
1513 7 24.2696 5.65418 2.03646
1527 7 27.2439 5.65418 2.03646
1402 7 1.96299 8.2299 2.03646
1416 7 4.93721 8.2299 2.03646
1430 7 7.91143 8.2299 2.03646
1444 7 10.8857 8.2299 2.03646
1458 7 13.8599 8.2299 2.03646
1472 7 16.8341 8.2299 2.03646
1486 7 19.8083 8.2299 2.03646
1500 7 22.7825 8.2299 2.03646
1514 7 25.7568 8.2299 2.03646
1528 7 28.731 8.2299 2.03646
2801 7 0.475881 10.8056 2.03646
2815 7 3.4501 10.8056 2.03646
2829 7 6.42432 10.8056 2.03646
2843 7 9.39854 10.8056 2.03646
2857 7 12.3728 10.8056 2.03646
2871 7 15.347 10.8056 2.03646
2885 7 18.3212 10.8056 2.03646
2899 7 21.2954 10.8056 2.03646
2913 7 24.2696 10.8056 2.03646
2927 7 27.2439 10.8056 2.03646
2802 7 1.96299 13.3813 2.03646
2816 7 4.93721 13.3813 2.03646
2830 7 7.91143 13.3813 2.03646
2844 7 10.8857 13.3813 2.03646
2858 7 13.8599 13.3813 2.03646
2872 7 16.8341 13.3813 2.03646
2886 7 19.8083 13.3813 2.03646
2900 7 22.7825 13.3813 2.03646
2914 7 25.7568 13.3813 2.03646
2928 7 28.731 13.3813 2.03646
4201 7 0.475881 15.9571 2.03646
4215 7 3.4501 15.9571 2.03646
4229 7 6.42432 15.9571 2.03646
4243 7 9.39854 15.9571 2.03646
4257 7 12.3728 15.9571 2.03646
4271 7 15.347 15.9571 2.03646
4285 7 18.3212 15.9571 2.03646
4299 7 21.2954 15.9571 2.03646
4313 7 24.2696 15.9571 2.03646
4327 7 27.2439 15.9571 2.03646
5601 7 0.475881 21.1085 2.03646
4202 7 1.96299 18.5328 2.03646
5615 7 3.4501 21.1085 2.03646
4216 7 4.93721 18.5328 2.03646
5629 7 6.42432 21.1085 2.03646
4230 7 7.91143 18.5328 2.03646
5643 7 9.39854 21.1085 2.03646
4244 7 10.8857 18.5328 2.03646
5657 7 12.3728 21.1085 2.03646
4258 7 13.8599 18.5328 2.03646
5671 7 15.347 21.1085 2.03646
4272 7 16.8341 18.5328 2.03646
5685 7 18.3212 21.1085 2.03646
4286 7 19.8083 18.5328 2.03646
5699 7 21.2954 21.1085 2.03646
4300 7 22.7825 18.5328 2.03646
5713 7 24.2696 21.1085 2.03646
4314 7 25.7568 18.5328 2.03646
5727 7 27.2439 21.1085 2.03646
4328 7 28.731 18.5328 2.03646
5602 7 1.96299 23.6842 2.03646
5616 7 4.93721 23.6842 2.03646
5630 7 7.91143 23.6842 2.03646
5644 7 10.8857 23.6842 2.03646
5658 7 13.8599 23.6842 2.03646
5672 7 16.8341 23.6842 2.03646
5686 7 19.8083 23.6842 2.03646
5700 7 22.7825 23.6842 2.03646
5714 7 25.7568 23.6842 2.03646
5728 7 28.731 23.6842 2.03646
7001 7 0.475881 26.26 2.03646
7015 7 3.4501 26.26 2.03646
7029 7 6.42432 26.26 2.03646
7043 7 9.39854 26.26 2.03646
7057 7 12.3728 26.26 2.03646
7071 7 15.347 26.26 2.03646
7085 7 18.3212 26.26 2.03646
7099 7 21.2954 26.26 2.03646
7113 7 24.2696 26.26 2.03646
7127 7 27.2439 26.26 2.03646
7002 7 1.96299 28.8357 2.03646
7016 7 4.93721 28.8357 2.03646
7030 7 7.91143 28.8357 2.03646
7044 7 10.8857 28.8357 2.03646
7058 7 13.8599 28.8357 2.03646
7072 7 16.8341 28.8357 2.03646
7086 7 19.8083 28.8357 2.03646
7100 7 22.7825 28.8357 2.03646
7114 7 25.7568 28.8357 2.03646
7128 7 28.731 28.8357 2.03646
5 2 0.482384 2.22569 4.35809
7 1 0.498699 0.513492 5.60679
3 1 1.96159 1.35519 3.16566
8 1 1.97941 3.08949 5.57248
19 2 3.45988 2.2214 4.33792
21 1 3.47132 0.508038 5.57258
17 1 4.94481 1.35276 3.14854
22 1 4.95504 3.08491 5.54912
33 2 6.43402 2.21692 4.31841
35 1 6.45648 0.496895 5.56962
31 1 7.92047 1.3523 3.13744
36 1 7.92645 3.09627 5.5248
47 2 9.41275 2.21581 4.31097
49 1 9.39903 0.493978 5.56173
45 1 10.8975 1.35136 3.135
50 1 10.8961 3.08431 5.53438
61 2 12.386 2.21784 4.31657
63 1 12.3789 0.501857 5.55098
59 1 13.879 1.35046 3.13904
64 1 13.8719 3.08486 5.54284
75 2 15.3668 2.21834 4.32465
77 1 15.3638 0.508444 5.56131
73 1 16.8634 1.35103 3.14842
78 1 16.8536 3.08639 5.55049
89 2 18.3491 2.21916 4.33411
91 1 18.349 0.50997 5.57224
87 1 19.8465 1.3494 3.15921
92 1 19.8344 3.0909 5.55932
103 2 21.3206 2.22639 4.34577
105 1 21.3311 0.498323 5.58768
101 1 22.8011 1.34157 3.18977
106 1 22.8049 3.08248 5.56517
117 2 24.2891 2.20161 4.35684
119 1 24.2943 0.464664 5.55515
115 1 25.7764 1.31667 3.21274
120 1 25.7739 3.04466 5.5562
131 2 27.241 2.28282 4.282
133 1 27.2439 0.502734 5.50412
129 1 28.7011 1.35046 3.15774
134 1 28.7096 3.05021 5.54481
147 1 30.1764 0.513395 5.54419
1407 1 0.488211 5.67032 5.56711
4 1 0.472432 3.93588 3.16177
6 2 1.9693 4.80432 4.33564
1421 1 3.4641 5.66944 5.54984
18 1 3.45066 3.93798 3.14348
20 2 4.94525 4.80388 4.31555
1435 1 6.4366 5.66909 5.5312
32 1 6.42757 3.93853 3.12127
34 2 7.92201 4.80744 4.29656
1449 1 9.41339 5.67206 5.52031
46 1 9.41145 3.93734 3.11301
48 2 10.8986 4.80232 4.29832
1463 1 12.384 5.66763 5.52179
60 1 12.3891 3.93314 3.11961
62 2 13.8763 4.79822 4.30409
1477 1 15.3641 5.66242 5.5304
74 1 15.3694 3.93024 3.1276
76 2 16.8568 4.79758 4.31324
1491 1 18.3467 5.66659 5.53842
88 1 18.3493 3.92997 3.13717
90 2 19.8367 4.80128 4.32557
1505 1 21.3338 5.69457 5.54499
102 1 21.3229 3.93943 3.1473
104 2 22.8009 4.80392 4.32957
1519 1 24.2627 5.68334 5.54372
116 1 24.2837 3.92058 3.15042
118 2 25.7543 4.78741 4.32817
1533 1 27.2379 5.65207 5.53854
130 1 27.2359 3.92971 3.1297
132 2 28.7259 4.78981 4.3186
1405 2 0.482327 7.3883 4.33301
1404 1 0.478142 9.10864 3.14128
1403 1 1.96243 6.52294 3.14235
1408 1 1.97608 8.25378 5.54959
1419 2 3.45656 7.38851 4.31677
1418 1 3.45184 9.10959 3.126
1417 1 4.93751 6.52345 3.12283
1422 1 4.94849 8.25268 5.53232
1433 2 6.42856 7.38646 4.29458
1432 1 6.42511 9.11158 3.10611
1431 1 7.91784 6.52171 3.10438
1436 1 7.91508 8.24615 5.50543
1447 2 9.41294 7.38612 4.28695
1446 1 9.40671 9.10662 3.10222
1445 1 10.8982 6.52197 3.10653
1450 1 10.8963 8.26101 5.52493
1461 2 12.3819 7.38113 4.28676
1460 1 12.3837 9.09935 3.1005
1459 1 13.8782 6.51164 3.10494
1464 1 13.8806 8.23796 5.50247
1475 2 15.3695 7.37539 4.29109
1474 1 15.3696 9.09417 3.09957
1473 1 16.859 6.51112 3.11736
1478 1 16.8578 8.24021 5.52341
1489 2 18.3487 7.37828 4.30885
1488 1 18.353 9.08776 3.1166
1487 1 19.8316 6.51036 3.12259
1492 1 19.8657 8.23826 5.53142
1503 2 21.264 7.344 4.26764
1502 1 21.3335 9.07665 3.14375
1501 1 22.7986 6.53044 3.1538
1506 1 22.7825 8.2299 5.50412
1517 2 24.327 7.33891 4.2691
1516 1 24.255 9.07566 3.14559
1515 1 25.7584 6.50663 3.12394
1520 1 25.7193 8.23293 5.53423
1531 2 27.237 7.37321 4.314
1530 1 27.2336 9.08606 3.12327
1529 1 28.7278 6.51081 3.1261
1534 1 28.7239 8.23493 5.53353
2807 1 0.487231 10.8398 5.54973
2803 1 1.96762 11.6878 3.12991
1406 2 1.97103 9.97249 4.31919
2821 1 3.46559 10.8388 5.53621
2817 1 4.94071 11.6996 3.11886
1420 2 4.94474 9.97425 4.30256
2835 1 6.437 10.8362 5.52023
2831 1 7.9128 11.6944 3.10685
1434 2 7.91922 9.97493 4.2867
2849 1 9.41487 10.8244 5.52207
2845 1 10.8904 11.6788 3.0977
1448 2 10.8933 9.96395 4.28864
2863 1 12.3667 10.8151 5.52089
2859 1 13.8691 11.6747 3.09796
1462 2 13.8699 9.9617 4.28206
2877 1 15.3547 10.8172 5.51174
2873 1 16.8529 11.6709 3.10404
1476 2 16.8544 9.95367 4.29241
2891 1 18.3394 10.8119 5.52285
2887 1 19.8312 11.6627 3.1137
1490 2 19.8371 9.94538 4.30518
2905 1 21.3264 10.7807 5.52611
2901 1 22.7927 11.6689 3.10844
1504 2 22.7925 10.0116 4.25996
2919 1 24.2565 10.7792 5.52776
2915 1 25.7534 11.6624 3.11704
1518 2 25.7473 9.94345 4.30907
2933 1 27.2402 10.8109 5.5289
2929 1 28.7294 11.6702 3.11296
1532 2 28.7273 9.95188 4.30366
2805 2 0.482374 12.5534 4.32335
2804 1 0.489015 14.2623 3.12342
2806 2 1.96897 15.1316 4.31898
2808 1 1.97432 13.4162 5.53663
2819 2 3.4613 12.5547 4.3118
2818 1 3.45074 14.2694 3.11798
2820 2 4.88556 15.0973 4.26091
2822 1 4.96518 13.4425 5.52765
2833 2 6.42834 12.5611 4.29903
2832 1 6.42056 14.2894 3.13439
2834 2 7.96103 15.0875 4.24674
2836 1 7.8979 13.4337 5.51297
2847 2 9.39444 12.543 4.2845
2846 1 9.39497 14.2613 3.09073
2848 2 10.8789 15.1234 4.28336
2850 1 10.8823 13.4119 5.49383
2861 2 12.3791 12.5355 4.27823
2860 1 12.3778 14.2596 3.09209
2862 2 13.863 15.1158 4.28429
2864 1 13.8614 13.3939 5.5078
2875 2 15.3564 12.5342 4.28565
2874 1 15.3565 14.2549 3.09964
2876 2 16.8421 15.1137 4.28885
2878 1 16.8415 13.3926 5.51655
2889 2 18.3364 12.5295 4.29326
2888 1 18.3336 14.2508 3.10446
2890 2 19.8182 15.112 4.29064
2892 1 19.8214 13.3877 5.51951
2903 2 21.3075 12.5247 4.29963
2902 1 21.3053 14.2501 3.10613
2904 2 22.7917 15.1119 4.29074
2906 1 22.7915 13.3868 5.51978
2917 2 24.2759 12.5247 4.30104
2916 1 24.2776 14.25 3.10682
2918 2 25.7642 15.114 4.29143
2920 1 25.76 13.3901 5.52157
2931 2 27.2446 12.5305 4.29789
2930 1 27.2482 14.2524 3.10688
2932 2 28.7371 15.1193 4.29139
2934 1 28.7349 13.3973 5.52147
4205 2 0.460832 17.6861 4.33723
4207 1 0.45384 15.9847 5.54095
4203 1 1.95523 16.8435 3.13881
4219 2 3.44988 17.6949 4.32024
4221 1 3.48575 15.9843 5.53278
4217 1 4.94596 16.8313 3.14847
4233 2 6.40773 17.7482 4.2652
4235 1 6.42432 15.9571 5.50412
4231 5 7.87912 16.8212 3.13599
4249 1 9.35621 15.9747 5.51504
4247 2 9.37851 17.6823 4.29941
4245 1 10.8714 16.8328 3.10568
4261 2 12.3693 17.6914 4.29159
4263 1 12.3686 15.9749 5.5119
4259 1 13.8616 16.8373 3.10212
4275 2 15.3524 17.6968 4.29097
4277 1 15.3511 15.9731 5.51454
4273 1 16.8403 16.8375 3.10339
4289 2 18.3272 17.6971 4.28927
4291 1 18.3291 15.973 5.51594
4287 1 19.8152 16.8345 3.10144
4303 2 21.3038 17.6946 4.28515
4305 1 21.3051 15.9745 5.51543
4301 1 22.7915 16.8323 3.09946
4317 2 24.2807 17.6958 4.28415
4319 1 24.2793 15.9767 5.51574
4315 1 25.7659 16.8327 3.09983
4331 2 27.2584 17.6987 4.28721
4333 1 27.254 15.9824 5.51508
4329 1 28.7403 16.8433 3.10388
5607 1 0.509519 21.0914 5.55849
4206 2 1.89702 20.2092 4.27511
4208 1 1.97183 18.5668 5.54232
5621 1 3.4501 21.1085 5.50412
4218 1 3.43752 19.4125 3.15637
4220 2 4.97772 20.2178 4.27356
4222 1 4.92903 18.5436 5.53189
5635 1 6.38193 21.1012 5.53514
4232 1 6.41105 19.4007 3.11374
4234 2 7.89728 20.2518 4.31346
4236 1 7.87888 18.509 5.52427
5649 1 9.38935 21.1068 5.53205
4246 1 9.38173 19.3981 3.11843
4248 2 10.8807 20.2592 4.30189
4250 1 10.8779 18.5421 5.52215
5663 1 12.3829 21.121 5.52763
4260 1 12.3691 19.408 3.11103
4262 2 13.8687 20.2706 4.30163
4264 1 13.8665 18.5535 5.51903
5677 1 15.3761 21.1574 5.52489
4274 1 15.3523 19.423 3.11157
4276 2 16.8407 20.2852 4.29853
4278 1 16.8417 18.5578 5.51822
5691 1 18.3103 21.1634 5.51786
4288 1 18.3231 19.4238 3.10623
4290 2 19.808 20.2745 4.28623
4292 1 19.8139 18.5573 5.5127
5705 1 21.2947 21.1284 5.49789
4302 1 21.3028 19.4117 3.09401
4304 2 22.7982 20.2734 4.28053
4306 1 22.795 18.5581 5.50813
5719 1 24.289 21.1437 5.52139
4316 1 24.2806 19.4167 3.09743
4318 2 25.7714 20.2749 4.28284
4320 1 25.773 18.5612 5.50579
5733 1 27.3059 21.1246 5.49635
4330 1 27.2541 19.4108 3.08687
4332 2 28.6935 20.2397 4.23136
4334 1 28.7602 18.5878 5.50898
5605 2 0.489696 22.8002 4.3283
5603 1 1.97107 21.9398 3.15918
5608 1 1.98936 23.634 5.54961
5619 2 3.44915 22.8742 4.27667
5617 1 4.90664 21.9526 3.15661
5622 1 4.92135 23.6419 5.54584
5633 2 6.41023 22.8162 4.32076
5631 1 7.89596 21.9695 3.12957
5636 1 7.9101 23.6774 5.54466
5647 2 9.39657 22.8286 4.31393
5645 1 10.8818 21.9786 3.12243
5650 1 10.8994 23.6864 5.54156
5661 2 12.3846 22.8391 4.31342
5659 1 13.8632 21.9857 3.11408
5664 1 13.9122 23.6923 5.53777
5675 2 15.3039 22.812 4.26113
5673 1 16.8393 22.0148 3.13682
5678 1 16.8341 23.6842 5.50412
5689 2 18.3828 22.8182 4.25168
5687 1 19.8145 21.993 3.09598
5692 1 19.788 23.7003 5.51986
5703 2 21.3045 22.8542 4.29071
5701 1 22.7973 21.994 3.10266
5706 1 22.8049 23.6964 5.53012
5717 2 24.2861 22.8474 4.29323
5715 1 25.7772 21.9895 3.10438
5720 1 25.7637 23.69 5.52956
5731 2 27.2667 22.8433 4.28802
5729 1 28.7632 21.9804 3.11662
5734 1 28.7617 23.6653 5.51334
7007 1 0.490432 26.2412 5.54828
5604 1 0.486223 24.515 3.13983
7003 1 1.9759 27.1113 3.13733
5606 2 1.97131 25.3818 4.32669
7021 1 3.45914 26.2436 5.54945
5618 1 3.4516 24.5349 3.13242
7017 1 4.94907 27.1204 3.14147
5620 2 4.94224 25.3901 4.32709
7035 1 6.43032 26.2503 5.55275
5632 1 6.4188 24.5375 3.13865
7031 1 7.92296 27.1273 3.145
5634 2 7.91609 25.4005 4.32449
7049 1 9.41077 26.2591 5.55481
5646 1 9.40229 24.5502 3.13458
7045 1 10.9023 27.1326 3.14729
5648 2 10.8999 25.4076 4.32428
7063 1 12.3954 26.2601 5.55503
5660 1 12.3905 24.5551 3.13585
7059 1 13.8819 27.1318 3.14842
5662 2 13.8865 25.4062 4.32542
7077 1 15.3864 26.2308 5.54808
5674 1 15.3777 24.5503 3.15187
7073 1 16.8459 27.1423 3.13215
5676 2 16.849 25.4753 4.26944
7091 1 18.3205 26.2334 5.53913
5688 1 18.3096 24.5541 3.14173
7087 1 19.8148 27.1366 3.12595
5690 2 19.8115 25.4131 4.30645
7105 1 21.3111 26.2704 5.52665
5702 1 21.3011 24.5655 3.11423
7101 1 22.8038 27.1563 3.11773
5704 2 22.7944 25.4208 4.29402
7119 1 24.2871 26.2874 5.51396
5716 1 24.285 24.5688 3.10834
7115 1 25.7979 27.1574 3.13494
5718 2 25.7733 25.4152 4.29212
7133 1 27.2617 26.2554 5.53619
5730 1 27.2607 24.5613 3.10983
7129 1 28.7174 27.1555 3.14241
5732 2 28.7458 25.4138 4.2986
7005 2 0.491723 27.9681 4.31985
7004 1 0.498735 29.6953 3.13336
7008 1 1.97642 28.8304 5.55088
7019 2 3.4636 27.9738 4.32672
7018 1 3.47055 29.7018 3.14378
7022 1 4.95052 28.8337 5.55842
7033 2 6.4377 27.9802 4.3324
7032 1 6.44562 29.7097 3.15223
7036 1 7.92666 28.8379 5.5654
7047 2 9.41448 27.9855 4.33659
7046 1 9.42082 29.7169 3.15955
7050 1 10.9039 28.8383 5.57072
7061 2 12.3935 27.9863 4.3384
7060 1 12.3937 29.718 3.16237
7064 1 13.8851 28.835 5.56884
7075 2 15.3655 27.9859 4.33601
7074 1 15.3627 29.7261 3.15785
7078 1 16.8537 28.8375 5.55912
7089 2 18.3335 27.9867 4.32204
7088 1 18.3354 29.7294 3.14603
7092 1 19.8169 28.8341 5.54052
7103 2 21.3159 27.9956 4.31167
7102 1 21.3139 29.7267 3.14522
7106 1 22.8031 28.8604 5.56021
7117 2 24.2913 28.0091 4.31086
7116 1 24.3019 29.7473 3.16481
7120 1 25.7956 28.8536 5.51382
7131 2 27.2645 27.8957 4.37655
7130 5 27.2439 29.6942 3.092
7134 1 28.742 28.8523 5.52755
11 1 0.504317 2.24255 8.00301
13 7 0.475881 0.502734 8.97177
9 2 1.99237 1.37622 6.81246
14 7 1.96299 3.07846 8.97177
25 1 3.49276 2.23325 7.98011
27 7 3.4501 0.502734 8.97177
23 2 4.97194 1.36778 6.77771
28 7 4.93721 3.07846 8.97177
39 1 6.47522 2.22504 7.93525
41 7 6.42432 0.502734 8.97177
37 2 7.92967 1.46878 6.69972
42 7 7.91143 3.07846 8.97177
53 1 9.39038 2.2243 7.92771
55 7 9.39854 0.502734 8.97177
51 2 10.8848 1.36373 6.76247
56 7 10.8857 3.07846 8.97177
67 1 12.3674 2.2321 7.95649
69 7 12.3728 0.502734 8.97177
65 2 13.8664 1.37365 6.77862
70 7 13.8599 3.07846 8.97177
81 1 15.3545 2.24271 7.96489
83 7 15.347 0.502734 8.97177
79 2 16.8508 1.37737 6.78772
84 7 16.8341 3.07846 8.97177
95 1 18.3369 2.24677 7.97372
97 7 18.3212 0.502734 8.97177
93 2 19.8307 1.38037 6.79632
98 7 19.8083 3.07846 8.97177
109 1 21.3151 2.23531 7.97884
111 7 21.2954 0.502734 8.97177
107 2 22.8078 1.36212 6.78975
112 7 22.7825 3.07846 8.97177
123 1 24.2794 2.22231 7.97104
125 7 24.2696 0.502734 8.97177
121 2 25.6988 1.39508 6.82222
126 7 25.7568 3.07846 8.97177
137 1 27.2467 2.20608 7.93582
139 7 27.2439 0.502734 8.97177
135 2 28.7824 1.40123 6.81595
140 7 28.731 3.07846 8.97177
1413 7 0.475881 5.65418 8.97177
10 2 0.496026 3.95506 6.80376
12 1 1.99082 4.81815 7.97693
1427 7 3.4501 5.65418 8.97177
24 2 3.47431 3.95137 6.7847
26 1 4.96558 4.81333 7.95841
1441 7 6.42432 5.65418 8.97177
38 2 6.4424 3.95297 6.7667
40 1 7.93533 4.81769 7.94521
1455 7 9.39854 5.65418 8.97177
52 2 9.41688 3.95518 6.75845
54 1 10.8966 4.82594 7.94081
1469 7 12.3728 5.65418 8.97177
66 2 12.3802 3.95196 6.76113
68 1 13.8647 4.81901 7.94621
1483 7 15.347 5.65418 8.97177
80 2 15.3593 3.95263 6.76805
82 1 16.848 4.82034 7.95312
1497 7 18.3212 5.65418 8.97177
94 2 18.3414 3.95605 6.77542
96 1 19.8315 4.82351 7.95712
1511 7 21.2954 5.65418 8.97177
108 2 21.3151 3.95455 6.77848
110 1 22.7968 4.80903 7.96622
1525 7 24.2696 5.65418 8.97177
122 2 24.2837 3.94358 6.77154
124 1 25.758 4.80035 7.95071
1539 7 27.2439 5.65418 8.97177
136 2 27.2427 3.93013 6.76692
138 1 28.7276 4.79639 7.95053
1411 1 0.499999 7.40044 7.97391
1410 2 0.494272 9.11871 6.78111
1409 2 1.98245 6.53504 6.7823
1414 7 1.96299 8.2299 8.97177
1425 1 3.47556 7.39797 7.95752
1424 2 3.46907 9.117 6.76609
1423 2 4.9567 6.53342 6.76512
1428 7 4.93721 8.2299 8.97177
1439 1 6.44955 7.39731 7.94187
1438 2 6.43997 9.11602 6.75045
1437 2 7.9294 6.53088 6.75074
1442 7 7.91143 8.2299 8.97177
1452 2 9.32956 9.064 6.66559
1453 1 9.41493 7.42435 7.90463
1451 2 10.8981 6.54268 6.73691
1456 7 10.8857 8.2299 8.97177
1467 1 12.3825 7.42087 7.90381
1466 2 12.4645 9.05722 6.66421
1465 2 13.87 6.52683 6.74967
1470 7 13.8599 8.2299 8.97177
1481 1 15.3549 7.39377 7.93671
1480 2 15.3586 9.10578 6.74364
1479 2 16.852 6.52966 6.75707
1484 7 16.8341 8.2299 8.97177
1495 1 18.3428 7.39431 7.94033
1494 2 18.3397 9.09971 6.74826
1493 2 19.8374 6.53393 6.75966
1498 7 19.8083 8.2299 8.97177
1508 2 21.2566 9.13059 6.79993
1509 1 21.3296 7.39986 7.92369
1507 2 22.7967 6.46131 6.81056
1512 7 22.7825 8.2299 8.97177
1523 1 24.2567 7.39291 7.92403
1522 2 24.3257 9.12647 6.80127
1521 2 25.7496 6.5218 6.75994
1526 7 25.7568 8.2299 8.97177
1537 1 27.236 7.38074 7.94379
1536 2 27.2392 9.09386 6.75405
1535 2 28.7259 6.5171 6.76305
1540 7 28.731 8.2299 8.97177
2813 7 0.475881 10.8056 8.97177
2809 2 1.97991 11.7004 6.76664
1412 1 1.98654 9.98206 7.95773
2827 7 3.4501 10.8056 8.97177
2823 2 4.95535 11.6978 6.75064
1426 1 4.9633 9.97679 7.94316
2841 7 6.42432 10.8056 8.97177
2837 2 7.93106 11.6874 6.72821
1440 1 7.95566 9.9577 7.90256
2855 7 9.39854 10.8056 8.97177
2851 2 10.8855 11.7816 6.65996
1454 5 10.8857 9.94705 7.91623
2869 7 12.3728 10.8056 8.97177
2865 2 13.8526 11.6734 6.72772
1468 1 13.8388 9.95088 7.89925
2883 7 15.347 10.8056 8.97177
2879 2 16.839 11.6762 6.74398
1482 1 16.8363 9.96445 7.93277
2897 7 18.3212 10.8056 8.97177
2893 2 19.8232 11.6725 6.74504
1496 1 19.8175 9.96279 7.94258
2911 7 21.2954 10.8056 8.97177
2907 2 22.7911 11.6617 6.74613
1510 1 22.7909 9.93588 7.91658
2925 7 24.2696 10.8056 8.97177
2921 2 25.7564 11.6723 6.74804
1524 1 25.7611 9.95852 7.94581
2939 7 27.2439 10.8056 8.97177
2935 2 28.7336 11.6781 6.75194
1538 1 28.7335 9.96002 7.94183
2811 1 0.490067 12.5655 7.95392
2810 2 0.479762 14.2777 6.76305
2812 1 1.97341 15.1312 7.94093
2814 7 1.96299 13.3813 8.97177
2825 1 3.47506 12.5612 7.9422
2824 2 3.46975 14.2748 6.75267
2826 1 4.96792 15.1315 7.91181
2828 7 4.93721 13.3813 8.97177
2839 1 6.44984 12.5397 7.93702
2838 2 6.43596 14.1998 6.79126
2840 1 7.89643 15.1234 7.90618
2842 7 7.91143 13.3813 8.97177
2853 1 9.42247 12.5367 7.89325
2852 2 9.38665 14.265 6.73334
2854 1 10.8777 15.1127 7.92108
2856 7 10.8857 13.3813 8.97177
2867 1 12.3454 12.5249 7.89486
2866 2 12.3727 14.2559 6.7356
2868 1 13.8581 15.107 7.92566
2870 7 13.8599 13.3813 8.97177
2881 1 15.3366 12.5305 7.92619
2880 2 15.3482 14.2512 6.74025
2882 1 16.8383 15.1111 7.92905
2884 7 16.8341 13.3813 8.97177
2895 1 18.3264 12.5372 7.93181
2894 2 18.3292 14.2528 6.74354
2896 1 19.8187 15.1138 7.92974
2898 7 19.8083 13.3813 8.97177
2909 1 21.3065 12.5278 7.93084
2908 2 21.3063 14.2516 6.7445
2910 1 22.7937 15.117 7.92973
2912 7 22.7825 13.3813 8.97177
2923 1 24.2746 12.5284 7.93196
2922 2 24.2773 14.2538 6.74513
2924 1 25.7648 15.1217 7.92996
2926 7 25.7568 13.3813 8.97177
2937 1 27.2481 12.54 7.93607
2936 2 27.2496 14.2592 6.74543
2938 1 28.737 15.1227 7.92979
2940 7 28.731 13.3813 8.97177
4211 1 0.476513 17.6966 7.94226
4213 7 0.475881 15.9571 8.97177
4209 2 1.96555 16.8347 6.75005
4225 1 3.45217 17.6848 7.95111
4227 7 3.4501 15.9571 8.97177
4223 2 4.88564 16.8673 6.79056
4239 1 6.41798 17.6635 7.90687
4241 7 6.42432 15.9571 8.97177
4237 2 7.95868 16.8565 6.78953
4253 1 9.39681 17.6834 7.93573
4255 7 9.39854 15.9571 8.97177
4251 2 10.8794 16.8262 6.73857
4267 1 12.3771 17.6848 7.92968
4269 7 12.3728 15.9571 8.97177
4265 2 13.8629 16.8298 6.74143
4281 1 15.3543 17.6873 7.92937
4283 7 15.347 15.9571 8.97177
4279 2 16.8413 16.8321 6.74238
4295 1 18.3331 17.6918 7.92785
4297 7 18.3212 15.9571 8.97177
4293 2 19.8187 16.8349 6.74135
4309 1 21.3106 17.7008 7.92603
4311 7 21.2954 15.9571 8.97177
4307 2 22.7949 16.84 6.74044
4323 1 24.2841 17.714 7.92337
4325 7 24.2696 15.9571 8.97177
4321 2 25.7682 16.844 6.73913
4337 1 27.2578 17.7096 7.92045
4339 7 27.2439 15.9571 8.97177
4335 2 28.7389 16.846 6.73595
5613 7 0.475881 21.1085 8.97177
4210 2 0.474859 19.3855 6.75521
4212 1 1.98814 20.2557 7.93003
4214 7 1.96299 18.5328 8.97177
5627 7 3.4501 21.1085 8.97177
4224 2 3.45257 19.3346 6.79931
4226 1 4.91985 20.2501 7.91792
4228 7 4.93721 18.5328 8.97177
5641 7 6.42432 21.1085 8.97177
4238 2 6.40965 19.387 6.74597
4240 1 7.90128 20.2408 7.93482
4242 7 7.91143 18.5328 8.97177
5655 7 9.39854 21.1085 8.97177
4252 2 9.38912 19.3935 6.74732
4254 1 10.8917 20.2542 7.93871
4256 7 10.8857 18.5328 8.97177
5669 7 12.3728 21.1085 8.97177
4266 2 12.3791 19.4033 6.74847
4268 1 13.8788 20.2646 7.93306
4270 7 13.8599 18.5328 8.97177
5683 7 15.347 21.1085 8.97177
4280 2 15.3574 19.412 6.74263
4282 1 16.8496 20.2629 7.93622
4284 7 16.8341 18.5328 8.97177
5697 7 18.3212 21.1085 8.97177
4294 2 18.3322 19.4165 6.73838
4296 1 19.8194 20.2763 7.92316
4298 7 19.8083 18.5328 8.97177
5711 7 21.2954 21.1085 8.97177
4308 2 21.3074 19.4138 6.73725
4310 1 22.7974 20.3036 7.89614
4312 7 22.7825 18.5328 8.97177
5725 7 24.2696 21.1085 8.97177
4322 2 24.2861 19.4282 6.72566
4324 1 25.7801 20.3033 7.89094
4326 7 25.7568 18.5328 8.97177
5739 7 27.2439 21.1085 8.97177
4336 2 27.2664 19.419 6.73016
4338 1 28.76 20.2844 7.89798
4340 7 28.731 18.5328 8.97177
5611 1 0.481915 22.8091 7.972
5609 2 1.91585 21.9838 6.82067
5614 7 1.96299 23.6842 8.97177
5625 1 3.45777 22.7877 7.93492
5623 2 4.99174 21.987 6.81013
5628 7 4.93721 23.6842 8.97177
5639 1 6.43059 22.8123 7.95752
5637 2 7.9071 21.957 6.75856
5642 7 7.91143 23.6842 8.97177
5653 1 9.40794 22.817 7.95085
5651 2 10.8949 21.9688 6.75896
5656 7 10.8857 23.6842 8.97177
5667 1 12.3973 22.8274 7.94489
5665 2 13.8848 21.9814 6.75153
5670 7 13.8599 23.6842 8.97177
5681 1 15.388 22.8416 7.91876
5679 2 16.8488 21.9224 6.7941
5684 7 16.8341 23.6842 8.97177
5695 1 18.3256 22.8475 7.91184
5693 2 19.8104 21.9928 6.73778
5698 7 19.8083 23.6842 8.97177
5709 1 21.329 22.8285 7.8994
5707 2 22.711 21.9406 6.66385
5712 7 22.7825 23.6842 8.97177
5723 5 24.2696 22.8257 7.91623
5721 2 25.8653 21.9332 6.65662
5726 7 25.7568 23.6842 8.97177
5737 1 27.2331 22.8242 7.90468
5735 2 28.6941 22.0156 6.78131
5740 7 28.731 23.6842 8.97177
7013 7 0.475881 26.26 8.97177
5610 2 0.491615 24.5238 6.77722
7009 2 1.97301 27.1039 6.77576
5612 1 1.97379 25.3771 7.95928
7027 7 3.4501 26.26 8.97177
5624 2 3.457 24.5153 6.77
7023 2 4.94534 27.1057 6.77959
5626 1 4.94286 25.3775 7.95852
7041 7 6.42432 26.26 8.97177
5638 2 6.42556 24.5291 6.76968
7037 2 7.92216 27.1117 6.78387
5640 1 7.92038 25.3896 7.96295
7055 7 9.39854 26.26 8.97177
5652 2 9.40824 24.5369 6.77268
7051 2 10.9029 27.1141 6.78646
5654 1 10.9014 25.3922 7.96283
7069 7 12.3728 26.26 8.97177
5666 2 12.3944 24.5399 6.76666
7065 2 13.8871 27.112 6.7794
5668 1 13.8823 25.3958 7.96311
7083 7 15.347 26.26 8.97177
5680 2 15.3159 24.5737 6.80862
7079 2 16.8579 27.1037 6.77049
5682 1 16.8614 25.374 7.92691
7097 7 18.3212 26.26 8.97177
5694 2 18.3992 24.5791 6.80138
7093 2 19.8286 27.1125 6.76324
5696 1 19.8474 25.3994 7.94695
7111 7 21.2954 26.26 8.97177
5708 2 21.3197 24.5485 6.73618
7107 2 22.8005 27.1357 6.75207
5710 1 22.8272 25.4042 7.91111
7125 7 24.2696 26.26 8.97177
5722 2 24.2846 24.6516 6.67448
7121 2 25.7752 27.126 6.76001
5724 1 25.7444 25.3934 7.91416
7139 7 27.2439 26.26 8.97177
5736 2 27.2537 24.5405 6.73776
7135 2 28.7519 27.1241 6.75876
5738 1 28.7417 25.3915 7.93461
7011 1 0.482048 27.9665 7.95942
7010 2 0.484738 29.6902 6.77326
7014 7 1.96299 28.8357 8.97177
7025 1 3.45758 27.9628 7.96574
7024 2 3.46051 29.6895 6.78368
7028 7 4.93721 28.8357 8.97177
7039 1 6.43306 27.9647 7.97169
7038 2 6.43687 29.6914 6.79212
7042 7 7.91143 28.8357 8.97177
7053 1 9.41229 27.9673 7.97739
7052 2 9.41476 29.693 6.80103
7056 7 10.8857 28.8357 8.97177
7067 1 12.3947 27.9668 7.97824
7066 2 12.3948 29.6884 6.80751
7070 7 13.8599 28.8357 8.97177
7081 1 15.3764 27.9577 7.96819
7080 2 15.3732 29.6898 6.79876
7084 7 16.8341 28.8357 8.97177
7095 1 18.3487 27.9588 7.96073
7094 2 18.3432 29.692 6.7911
7098 7 19.8083 28.8357 8.97177
7108 2 21.2328 29.6411 6.71489
7109 1 21.3202 27.9948 7.93194
7112 7 22.7825 28.8357 8.97177
7123 1 24.2949 28.0018 7.9245
7122 2 24.3771 29.6446 6.70538
7126 7 25.7568 28.8357 8.97177
7140 7 28.731 28.8357 8.97177
7137 1 27.2619 27.9737 7.94713
7136 2 27.2646 29.6994 6.76805
8401 7 0.475881 31.4114 2.03646
8415 7 3.4501 31.4114 2.03646
8429 7 6.42432 31.4114 2.03646
8443 7 9.39854 31.4114 2.03646
8457 7 12.3728 31.4114 2.03646
8471 7 15.347 31.4114 2.03646
8485 7 18.3212 31.4114 2.03646
8499 7 21.2954 31.4114 2.03646
8513 7 24.2696 31.4114 2.03646
8527 7 27.2439 31.4114 2.03646
8402 7 1.96299 33.9871 2.03646
8416 7 4.93721 33.9871 2.03646
8430 7 7.91143 33.9871 2.03646
8444 7 10.8857 33.9871 2.03646
8458 7 13.8599 33.9871 2.03646
8472 7 16.8341 33.9871 2.03646
8486 7 19.8083 33.9871 2.03646
8500 7 22.7825 33.9871 2.03646
8514 7 25.7568 33.9871 2.03646
8528 7 28.731 33.9871 2.03646
9801 7 0.475881 36.5628 2.03646
9802 7 1.96299 39.1386 2.03646
9815 7 3.4501 36.5628 2.03646
9816 7 4.93721 39.1386 2.03646
9829 7 6.42432 36.5628 2.03646
9830 7 7.91143 39.1386 2.03646
9843 7 9.39854 36.5628 2.03646
9844 7 10.8857 39.1386 2.03646
9857 7 12.3728 36.5628 2.03646
9858 7 13.8599 39.1386 2.03646
9871 7 15.347 36.5628 2.03646
9872 7 16.8341 39.1386 2.03646
9885 7 18.3212 36.5628 2.03646
9886 7 19.8083 39.1386 2.03646
9899 7 21.2954 36.5628 2.03646
9900 7 22.7825 39.1386 2.03646
9913 7 24.2696 36.5628 2.03646
9914 7 25.7568 39.1386 2.03646
9927 7 27.2439 36.5628 2.03646
9928 7 28.731 39.1386 2.03646
11201 7 0.475881 41.7143 2.03646
11215 7 3.4501 41.7143 2.03646
11229 7 6.42432 41.7143 2.03646
11243 7 9.39854 41.7143 2.03646
11257 7 12.3728 41.7143 2.03646
11271 7 15.347 41.7143 2.03646
11285 7 18.3212 41.7143 2.03646
11299 7 21.2954 41.7143 2.03646
11313 7 24.2696 41.7143 2.03646
11327 7 27.2439 41.7143 2.03646
11202 7 1.96299 44.29 2.03646
11216 7 4.93721 44.29 2.03646
11230 7 7.91143 44.29 2.03646
11244 7 10.8857 44.29 2.03646
11258 7 13.8599 44.29 2.03646
11272 7 16.8341 44.29 2.03646
11286 7 19.8083 44.29 2.03646
11300 7 22.7825 44.29 2.03646
11314 7 25.7568 44.29 2.03646
11328 7 28.731 44.29 2.03646
12601 7 0.475881 46.8657 2.03646
12615 7 3.4501 46.8657 2.03646
12629 7 6.42432 46.8657 2.03646
12643 7 9.39854 46.8657 2.03646
12657 7 12.3728 46.8657 2.03646
12671 7 15.347 46.8657 2.03646
12685 7 18.3212 46.8657 2.03646
12699 7 21.2954 46.8657 2.03646
12713 7 24.2696 46.8657 2.03646
12727 7 27.2439 46.8657 2.03646
12602 7 1.96299 49.4414 2.03646
12616 7 4.93721 49.4414 2.03646
12630 7 7.91143 49.4414 2.03646
12644 7 10.8857 49.4414 2.03646
12658 7 13.8599 49.4414 2.03646
12672 7 16.8341 49.4414 2.03646
12686 7 19.8083 49.4414 2.03646
12700 7 22.7825 49.4414 2.03646
12714 7 25.7568 49.4414 2.03646
12728 7 28.731 49.4414 2.03646
14001 7 0.475881 52.0172 2.03646
14015 7 3.4501 52.0172 2.03646
14029 7 6.42432 52.0172 2.03646
14043 7 9.39854 52.0172 2.03646
14057 7 12.3728 52.0172 2.03646
14071 7 15.347 52.0172 2.03646
14085 7 18.3212 52.0172 2.03646
14099 7 21.2954 52.0172 2.03646
14113 7 24.2696 52.0172 2.03646
14127 7 27.2439 52.0172 2.03646
15401 7 0.475881 57.1686 2.03646
14002 7 1.96299 54.5929 2.03646
15415 7 3.4501 57.1686 2.03646
14016 7 4.93721 54.5929 2.03646
15429 7 6.42432 57.1686 2.03646
14030 7 7.91143 54.5929 2.03646
15443 7 9.39854 57.1686 2.03646
14044 7 10.8857 54.5929 2.03646
15457 7 12.3728 57.1686 2.03646
14058 7 13.8599 54.5929 2.03646
15471 7 15.347 57.1686 2.03646
14072 7 16.8341 54.5929 2.03646
15485 7 18.3212 57.1686 2.03646
14086 7 19.8083 54.5929 2.03646
15499 7 21.2954 57.1686 2.03646
14100 7 22.7825 54.5929 2.03646
15513 7 24.2696 57.1686 2.03646
14114 7 25.7568 54.5929 2.03646
15527 7 27.2439 57.1686 2.03646
14128 7 28.731 54.5929 2.03646
15402 7 1.96299 59.7443 2.03646
15416 7 4.93721 59.7443 2.03646
15430 7 7.91143 59.7443 2.03646
15444 7 10.8857 59.7443 2.03646
15458 7 13.8599 59.7443 2.03646
15472 7 16.8341 59.7443 2.03646
15486 7 19.8083 59.7443 2.03646
15500 7 22.7825 59.7443 2.03646
15514 7 25.7568 59.7443 2.03646
15528 7 28.731 59.7443 2.03646
8405 2 0.498554 33.142 4.32615
8407 1 0.490804 31.415 5.54874
8403 1 1.99008 32.2857 3.14524
7006 2 1.98214 30.5575 4.32724
8419 2 3.47247 33.1443 4.34158
8421 1 3.46615 31.4162 5.56207
8417 1 4.96489 32.2899 3.15795
7020 2 4.95688 30.5619 4.33767
8433 2 6.45025 33.1466 4.35423
8435 1 6.44289 31.4191 5.57236
8431 1 7.94945 32.2992 3.16998
7034 2 7.934 30.5678 4.34695
8447 2 9.43278 33.1523 4.37488
8449 1 9.42022 31.4221 5.58528
8445 1 10.9356 32.3076 3.20422
7048 2 10.9049 30.5673 4.35416
8461 2 12.3963 33.0505 4.44465
8463 1 12.3956 31.4109 5.60058
8459 1 13.858 32.3114 3.20548
7062 2 13.8843 30.5694 4.35418
8475 2 15.3626 33.1555 4.37983
8477 1 15.3703 31.4236 5.58633
8473 1 16.8527 32.3136 3.1755
7076 2 16.8534 30.5762 4.34598
8489 2 18.3499 33.156 4.37387
8491 1 18.3464 31.4239 5.57775
8487 1 19.85 32.3115 3.1963
7090 2 19.8253 30.5757 4.33842
8503 2 21.3101 33.0467 4.4302
8505 1 21.3256 31.4072 5.59932
8501 1 22.7723 32.311 3.19115
7104 2 22.7984 30.5728 4.34038
8517 2 24.2754 33.1562 4.35984