ITEM: TIMESTEP
100000
ITEM: NUMBER OF ATOMS
81200
ITEM: BOX BOUNDS pp pp pp
4.8156901897149801e-01 2.9781792687705234e+02
4.7584253691759831e-01 2.9917186943724550e+02
0.0000000000000000e+00 4.9031656433928198e+01
ITEM: ATOMS id type x y z
1 7 0.518736 0.546556 2.03646
2 7 2.00542 3.12152 2.03646
15 7 3.4921 0.546556 2.03646
16 7 4.97878 3.12152 2.03646
29 7 6.46546 0.546556 2.03646
30 7 7.95215 3.12152 2.03646
43 7 9.43883 0.546556 2.03646
44 7 10.9255 3.12152 2.03646
57 7 12.4122 0.546556 2.03646
58 7 13.8989 3.12152 2.03646
71 7 15.3856 0.546556 2.03646
72 7 16.8722 3.12152 2.03646
85 7 18.3589 0.546556 2.03646
86 7 19.8456 3.12152 2.03646
99 7 21.3323 0.546556 2.03646
100 7 22.819 3.12152 2.03646
113 7 24.3056 0.546556 2.03646
114 7 25.7923 3.12152 2.03646
127 7 27.279 0.546556 2.03646
128 7 28.7657 3.12152 2.03646
1401 7 0.518736 5.69649 2.03646
1415 7 3.4921 5.69649 2.03646
1429 7 6.46546 5.69649 2.03646
1443 7 9.43883 5.69649 2.03646
1457 7 12.4122 5.69649 2.03646
1471 7 15.3856 5.69649 2.03646
1485 7 18.3589 5.69649 2.03646
1499 7 21.3323 5.69649 2.03646
1513 7 24.3056 5.69649 2.03646
1527 7 27.279 5.69649 2.03646
1402 7 2.00542 8.27145 2.03646
1416 7 4.97878 8.27145 2.03646
1430 7 7.95215 8.27145 2.03646
1444 7 10.9255 8.27145 2.03646
1458 7 13.8989 8.27145 2.03646
1472 7 16.8722 8.27145 2.03646
1486 7 19.8456 8.27145 2.03646
1500 7 22.819 8.27145 2.03646
1514 7 25.7923 8.27145 2.03646
1528 7 28.7657 8.27145 2.03646
2801 7 0.518736 10.8464 2.03646
2815 7 3.4921 10.8464 2.03646
2829 7 6.46546 10.8464 2.03646
2843 7 9.43883 10.8464 2.03646
2857 7 12.4122 10.8464 2.03646
2871 7 15.3856 10.8464 2.03646
2885 7 18.3589 10.8464 2.03646
2899 7 21.3323 10.8464 2.03646
2913 7 24.3056 10.8464 2.03646
2927 7 27.279 10.8464 2.03646
2802 7 2.00542 13.4214 2.03646
2816 7 4.97878 13.4214 2.03646
2830 7 7.95215 13.4214 2.03646
2844 7 10.9255 13.4214 2.03646
2858 7 13.8989 13.4214 2.03646
2872 7 16.8722 13.4214 2.03646
2886 7 19.8456 13.4214 2.03646
2900 7 22.819 13.4214 2.03646
2914 7 25.7923 13.4214 2.03646
2928 7 28.7657 13.4214 2.03646
4201 7 0.518736 15.9964 2.03646
4215 7 3.4921 15.9964 2.03646
4229 7 6.46546 15.9964 2.03646
4243 7 9.43883 15.9964 2.03646
4257 7 12.4122 15.9964 2.03646
4271 7 15.3856 15.9964 2.03646
4285 7 18.3589 15.9964 2.03646
4299 7 21.3323 15.9964 2.03646
4313 7 24.3056 15.9964 2.03646
4327 7 27.279 15.9964 2.03646
5601 7 0.518736 21.1463 2.03646
4202 7 2.00542 18.5713 2.03646
5615 7 3.4921 21.1463 2.03646
4216 7 4.97878 18.5713 2.03646
5629 7 6.46546 21.1463 2.03646
4230 7 7.95215 18.5713 2.03646
5643 7 9.43883 21.1463 2.03646
4244 7 10.9255 18.5713 2.03646
5657 7 12.4122 21.1463 2.03646
4258 7 13.8989 18.5713 2.03646
5671 7 15.3856 21.1463 2.03646
4272 7 16.8722 18.5713 2.03646
5685 7 18.3589 21.1463 2.03646
4286 7 19.8456 18.5713 2.03646
5699 7 21.3323 21.1463 2.03646
4300 7 22.819 18.5713 2.03646
5713 7 24.3056 21.1463 2.03646
4314 7 25.7923 18.5713 2.03646
5727 7 27.279 21.1463 2.03646
4328 7 28.7657 18.5713 2.03646
5602 7 2.00542 23.7212 2.03646
5616 7 4.97878 23.7212 2.03646
5630 7 7.95215 23.7212 2.03646
5644 7 10.9255 23.7212 2.03646
5658 7 13.8989 23.7212 2.03646
5672 7 16.8722 23.7212 2.03646
5686 7 19.8456 23.7212 2.03646
5700 7 22.819 23.7212 2.03646
5714 7 25.7923 23.7212 2.03646
5728 7 28.7657 23.7212 2.03646
7001 7 0.518736 26.2962 2.03646
7015 7 3.4921 26.2962 2.03646
7029 7 6.46546 26.2962 2.03646
7043 7 9.43883 26.2962 2.03646
7057 7 12.4122 26.2962 2.03646
7071 7 15.3856 26.2962 2.03646
7085 7 18.3589 26.2962 2.03646
7099 7 21.3323 26.2962 2.03646
7113 7 24.3056 26.2962 2.03646
7127 7 27.279 26.2962 2.03646
7002 7 2.00542 28.8712 2.03646
7016 7 4.97878 28.8712 2.03646
7030 7 7.95215 28.8712 2.03646
7044 7 10.9255 28.8712 2.03646
7058 7 13.8989 28.8712 2.03646
7072 7 16.8722 28.8712 2.03646
7086 7 19.8456 28.8712 2.03646
7100 7 22.819 28.8712 2.03646
7114 7 25.7923 28.8712 2.03646
7128 7 28.7657 28.8712 2.03646
5 2 0.528081 2.25831 4.3434
7 1 0.544778 0.581781 5.56451
3 1 1.998 1.39538 3.1355
8 1 2.02711 3.12687 5.54954
19 2 3.50459 2.26172 4.30653
21 1 3.52036 0.546564 5.53295
17 1 4.98676 1.39527 3.11311
22 1 5.00088 3.1216 5.52039
33 2 6.47752 2.25739 4.28312
35 1 6.50182 0.533113 5.52886
31 1 7.96329 1.39894 3.09804
36 1 7.97105 3.13434 5.49057
47 2 9.46452 2.26337 4.27843
49 1 9.44372 0.533094 5.51621
45 1 10.9398 1.39879 3.09066
50 1 10.9191 3.10903 5.47571
61 2 12.4289 2.25716 4.26704
63 1 12.4216 0.538406 5.49995
59 1 13.9222 1.39937 3.09515
64 1 13.9348 3.11142 5.48487
75 2 15.4002 2.26816 4.29346
77 1 15.403 0.549111 5.51799
73 1 16.9049 1.40124 3.11152
78 1 16.8926 3.12684 5.51872
89 2 18.3896 2.26619 4.29994
91 1 18.3871 0.55406 5.53232
87 1 19.8908 1.40969 3.12426
92 1 19.8688 3.13279 5.53522
103 2 21.3548 2.27353 4.32561
105 1 21.365 0.549835 5.5578
101 1 22.8409 1.39954 3.16824
106 1 22.84 3.11052 5.56537
117 2 24.3247 2.26005 4.34366
119 1 24.2938 0.526616 5.55426
115 1 25.8189 1.45452 3.15386
120 1 25.8086 3.09009 5.54617
131 2 27.274 2.34251 4.25546
133 1 27.279 0.546556 5.50412
129 1 28.7434 1.38812 3.13495
134 1 28.7416 3.09336 5.52383
147 1 30.2047 0.575235 5.50858
1407 1 0.534868 5.70852 5.5523
4 1 0.517035 3.97835 3.14466
6 2 2.01421 4.84437 4.31665
1421 1 3.50987 5.70604 5.53106
18 1 3.49295 3.98054 3.11906
20 2 4.98871 4.84389 4.29156
1435 1 6.48106 5.7055 5.5079
32 1 6.46865 3.98268 3.09164
34 2 7.96414 4.84886 4.26644
1449 1 9.45517 5.71043 5.48758
46 1 9.45405 3.9826 3.07893
48 2 10.9389 4.8462 4.25798
1463 1 12.4265 5.73255 5.47125
60 1 12.433 3.9802 3.07799
62 2 13.9232 4.84309 4.26431
1477 1 15.4066 5.7023 5.49985
74 1 15.4166 3.97948 3.09646
76 2 16.9086 4.84685 4.29344
1491 1 18.3591 5.69073 5.50753
88 1 18.4003 3.98437 3.10896
90 2 19.864 4.84005 4.3145
1505 1 21.367 5.72398 5.57449
102 1 21.3392 3.98277 3.13501
104 2 22.819 4.83817 4.27785
1519 1 24.3167 5.73764 5.5658
116 1 24.3461 3.96412 3.12714
118 2 25.7905 4.83559 4.32168
1533 1 27.272 5.6917 5.52291
130 1 27.2628 3.9821 3.10825
132 2 28.767 4.83775 4.30705
1405 2 0.527995 7.42862 4.32074
1404 1 0.52357 9.15129 3.13424
1403 1 2.00648 6.56592 3.12688
1408 1 2.02281 8.29105 5.53832
1419 2 3.50119 7.42866 4.30129
1418 1 3.49475 9.15611 3.11374
1417 1 4.97926 6.56707 3.10362
1422 1 4.99398 8.28854 5.51795
1433 2 6.47193 7.42631 4.27594
1432 1 6.46836 9.15358 3.09236
1431 1 7.95886 6.56631 3.07962
1436 1 7.95949 8.2827 5.48822
1447 2 9.45545 7.42717 4.26374
1446 1 9.45058 9.14988 3.08579
1445 1 10.9421 6.5671 3.07991
1450 1 10.9393 8.29758 5.50577
1461 2 12.4262 7.41258 4.27121
1460 1 12.4302 9.14076 3.0862
1459 1 13.9237 6.55754 3.07923
1464 1 13.9241 8.27443 5.48526
1475 2 15.4146 7.41712 4.26994
1474 1 15.4235 9.13543 3.0845
1473 1 16.913 6.56166 3.09476
1478 1 16.8957 8.27539 5.51238
1489 2 18.3783 7.41236 4.30375
1488 1 18.3728 9.11227 3.11475
1487 1 19.8291 6.53133 3.10218
1492 1 19.8929 8.27964 5.56482
1503 2 21.3323 7.41313 4.27785
1502 1 21.4191 9.10057 3.22738
1501 1 22.8335 6.64266 3.23809
1506 1 22.819 8.27145 5.50412
1517 2 24.3814 7.40508 4.30055
1516 1 24.2846 9.11785 3.14599
1515 1 25.7731 6.55564 3.11941
1520 1 25.7398 8.25666 5.51203
1531 2 27.2699 7.41377 4.29795
1530 1 27.2656 9.13243 3.1146
1529 1 28.7578 6.55739 3.11378
1534 1 28.7804 8.2632 5.50359
2807 1 0.53501 10.8512 5.56406
2803 1 2.05039 11.7046 3.11667
1406 2 2.0219 10.0044 4.31713
2821 1 3.51417 10.8732 5.53386
2817 1 4.98016 11.7366 3.11028
1420 2 4.98958 10.0125 4.29297
2835 1 6.48263 10.8719 5.51074
2831 1 7.95678 11.7347 3.09824
1434 2 7.96355 10.0139 4.27415
2849 1 9.45948 10.8601 5.51157
2845 1 10.9364 11.7197 3.08946
1448 2 10.9383 10.0028 4.27513
2863 1 12.4111 10.8502 5.51122
2859 1 13.9164 11.7142 3.09203
1462 2 13.916 9.99946 4.2699
2877 1 15.3992 10.8503 5.5065
2873 1 16.9021 11.7087 3.10476
1476 2 16.8922 9.99037 4.29226
2891 1 18.3641 10.8523 5.54297
2887 1 19.884 11.7198 3.11562
1490 2 19.8456 9.9881 4.27785
2905 1 21.3878 10.8276 5.56572
2901 1 22.8243 11.6977 3.11912
1504 2 22.8515 10.061 4.28903
2919 1 24.2959 10.8179 5.53653
2915 1 25.7892 11.7033 3.12618
1518 2 25.7816 9.9859 4.3045
2933 1 27.2782 10.8732 5.51487
2929 1 28.765 11.7205 3.11862
1532 2 28.764 9.99718 4.29382
2805 2 0.518736 12.5631 4.27785
2804 1 0.536496 14.3355 3.1181
2806 2 2.01805 15.1723 4.32056
2808 1 2.04208 13.464 5.55322
2819 2 3.51477 12.5899 4.31242
2818 1 3.49497 14.3034 3.11323
2820 2 4.93012 15.1314 4.25308
2822 1 5.01035 13.4769 5.52221
2833 2 6.47273 12.5976 4.29157
2832 1 6.46627 14.3259 3.12855
2834 2 8.00559 15.1238 4.24353
2836 1 7.94203 13.4689 5.50806
2847 2 9.43926 12.5808 4.27798
2846 1 9.44083 14.3008 3.08772
2848 2 10.9242 15.1599 4.28328
2850 1 10.9268 13.4466 5.49024
2861 2 12.4248 12.5728 4.27327
2860 1 12.4248 14.2995 3.09144
2862 2 13.9083 15.1522 4.28635
2864 1 13.9059 13.4273 5.5067
2875 2 15.4024 12.57 4.28384
2874 1 15.4038 14.293 3.10174
2876 2 16.8878 15.146 4.29355
2878 1 16.8861 13.4233 5.51931
2889 2 18.3801 12.5668 4.30216
2888 1 18.3854 14.2778 3.10934
2890 2 19.8609 15.1433 4.30089
2892 1 19.8625 13.4209 5.53242
2903 2 21.3509 12.5624 4.31653
2902 1 21.3428 14.2777 3.11569
2904 2 22.8308 15.1445 4.30312
2906 1 22.8301 13.4198 5.53283
2917 2 24.3123 12.5613 4.3108
2916 1 24.3159 14.2852 3.11978
2918 2 25.8031 15.1485 4.30624
2920 1 25.7966 13.4248 5.5353
2931 2 27.2808 12.5594 4.31741
2930 1 27.2916 14.2886 3.12276
2932 2 28.7669 15.1553 4.31634
2934 1 28.769 13.4318 5.54158
4205 2 0.515368 17.7256 4.34159
4207 1 0.499966 16.0212 5.54398
4203 1 1.99606 16.8742 3.1317
4219 2 3.49443 17.7246 4.30295
4221 1 3.53061 16.0173 5.52245
4217 1 4.99123 16.8645 3.13938
4233 2 6.447 17.7806 4.26968
4235 1 6.46546 15.9964 5.50412
4231 1 7.92529 16.8615 3.13617
4249 1 9.39969 16.0081 5.51637
4247 2 9.41719 17.7098 4.30977
4245 1 10.9175 16.8724 3.11204
4261 2 12.4185 17.7215 4.3057
4263 1 12.413 16.0088 5.51576
4259 1 13.9055 16.8807 3.10781
4275 2 15.3965 17.7303 4.30093
4277 1 15.3947 16.0044 5.52032
4273 1 16.8859 16.8712 3.1118
4289 2 18.37 17.7296 4.30022
4291 1 18.3709 16.004 5.52441
4287 1 19.8584 16.8679 3.1127
4303 2 21.3449 17.7273 4.29874
4305 1 21.3455 16.0062 5.52757
4301 1 22.8321 16.8656 3.11357
4317 2 24.3203 17.7293 4.30047
4319 1 24.3179 16.0094 5.53113
4315 1 25.8059 16.8677 3.11688
4331 2 27.2966 17.734 4.30669
4333 1 27.2913 16.0161 5.53387
4329 1 28.7797 16.8803 3.12705
5607 1 0.551675 21.1263 5.55683
4206 2 1.93559 20.2392 4.26707
4208 1 1.98932 18.586 5.51552
5621 1 3.4921 21.1463 5.50412
4218 1 3.48247 19.4457 3.14579
4220 2 5.02982 20.2467 4.26501
4222 1 5.00493 18.5613 5.49439
5635 1 6.4308 21.1337 5.53475
4232 1 6.46437 19.4331 3.11107
4234 2 7.93588 20.2841 4.32435
4236 1 7.92122 18.5387 5.53204
4246 1 9.38896 19.4108 3.12082
5649 1 9.41195 21.1486 5.5628
4248 2 10.9255 20.288 4.27785
4250 1 10.9202 18.5512 5.55014
5663 1 12.4529 21.1674 5.56317
4260 1 12.452 19.4268 3.11825
4262 2 13.9227 20.3038 4.32141
4264 1 13.9124 18.5842 5.5349
5677 1 15.4196 21.1886 5.53933
4274 1 15.3916 19.456 3.12254
4276 2 16.8831 20.3174 4.31121
4278 1 16.8843 18.5891 5.52948
5691 1 18.3515 21.195 5.5327
4288 1 18.3653 19.4577 3.11903
4290 2 19.8492 20.3073 4.30091
4292 1 19.8548 18.5889 5.52587
5705 1 21.3344 21.1606 5.51436
4302 1 21.3445 19.4457 3.10893
4304 2 22.8383 20.3068 4.29741
4306 1 22.8345 18.5903 5.52378
5719 1 24.3275 21.1764 5.54009
4316 1 24.3214 19.4513 3.1149
4318 2 25.8106 20.3094 4.30242
4320 1 25.8111 18.5946 5.52447
5733 1 27.3434 21.1588 5.51826
4330 1 27.2939 19.4467 3.1073
4332 2 28.7318 20.2751 4.25282
4334 1 28.7971 18.6235 5.53177
5605 2 0.534593 22.8353 4.3327
5603 1 2.01609 21.9754 3.16093
5608 1 2.03449 23.6665 5.55769
5619 2 3.49572 22.9055 4.28324
5617 1 4.95505 21.9868 3.15845
5622 1 4.96863 23.6736 5.55439
5633 2 6.45823 22.8496 4.3264
5631 1 7.94698 22.0042 3.13857
5636 1 7.95646 23.7091 5.55598
5647 2 9.44102 22.8674 4.33254
5645 1 10.9321 22.0518 3.13292
5650 1 10.9439 23.7205 5.56152
5661 2 12.4341 22.8799 4.33538
5659 1 13.9087 22.0203 3.13061
5664 1 13.9554 23.725 5.55395
5675 2 15.3483 22.8454 4.27649
5673 1 16.8823 22.048 3.15131
5678 1 16.8722 23.7212 5.50412
5689 2 18.4241 22.8508 4.26749
5687 1 19.8563 22.0268 3.11202
5692 1 19.8277 23.7325 5.53716
5703 2 21.3447 22.8874 4.30833
5701 1 22.8381 22.0282 3.12064
5706 1 22.8434 23.7291 5.54937
5717 2 24.3252 22.8811 4.31307
5715 1 25.8175 22.0255 3.12491
5720 1 25.8005 23.7229 5.55143
5731 2 27.3043 22.8789 4.30992
5729 1 28.8012 22.0164 3.13966
5734 1 28.7969 23.6999 5.53839
7007 1 0.537111 26.2739 5.55948
5604 1 0.532451 24.5509 3.14829
7003 1 2.0228 27.1453 3.14931
5606 2 2.01781 25.415 4.33696
7021 1 3.50555 26.2752 5.56105
5618 1 3.49872 24.5686 3.14219
7017 1 4.99592 27.1537 3.15397
5620 2 4.98926 25.4225 4.33796
7035 1 6.4761 26.2816 5.56529
5632 1 6.46738 24.5715 3.14858
7031 1 7.9699 27.1591 3.15849
5634 2 7.96335 25.4323 4.33629
7049 1 9.45507 26.291 5.56918
5646 1 9.45431 24.5787 3.14682
7045 1 10.9474 27.1648 3.16282
5648 2 10.9449 25.4396 4.34032
7063 1 12.4389 26.2923 5.5713
5660 1 12.4313 24.5842 3.15051
7059 1 13.925 27.1634 3.16495
5662 2 13.9291 25.4385 4.34117
7077 1 15.4284 26.2629 5.56526
5674 1 15.4205 24.5838 3.16781
7073 1 16.8882 27.1752 3.14959
5676 2 16.891 25.5081 4.28631
7091 1 18.3612 26.2658 5.55691
5688 1 18.3515 24.5876 3.15846
7087 1 19.8563 27.1702 3.14421
5690 2 19.8522 25.4462 4.32439
7105 1 21.3503 26.3032 5.54559
5702 1 21.3419 24.5993 3.1326
7101 1 22.8449 27.19 3.13754
5704 2 22.8339 25.4542 4.31378
7119 1 24.3242 26.3207 5.53536
5716 1 24.3248 24.6029 3.12912
7115 1 25.8421 27.1887 3.156
5718 2 25.8109 25.4488 4.31543
7133 1 27.2937 26.2868 5.567
5730 1 27.3007 24.603 3.13227
7129 1 28.7185 27.1725 3.16983
5732 2 28.7765 25.4416 4.3319
7005 2 0.538423 28.0015 4.33245
7004 1 0.545364 29.7291 3.14708
7008 1 2.02308 28.8626 5.56409
7019 2 3.5102 28.0065 4.33951
7018 1 3.51717 29.7352 3.15737
7022 1 4.99657 28.8656 5.57188
7033 2 6.4838 28.0123 4.34573
7032 1 6.49174 29.7424 3.16609
7036 1 7.97148 28.8699 5.57971
7047 2 9.45941 28.0174 4.35141
7046 1 9.46582 29.7487 3.17418
7050 1 10.9476 28.8703 5.58644
7061 2 12.4372 28.0182 4.35473
7060 1 12.4379 29.7494 3.17828
7064 1 13.9277 28.867 5.58595
7075 2 15.4078 28.018 4.35333
7074 1 15.4056 29.7579 3.17519
7078 1 16.8951 28.8697 5.57713
7089 2 18.3749 28.0196 4.34013
7088 1 18.3773 29.7623 3.16425
7092 1 19.8572 28.867 5.5592
7103 2 21.3564 28.0291 4.33069
7102 1 21.3555 29.7612 3.16431
7106 1 22.8421 28.8938 5.58026
7117 2 24.3306 28.042 4.33122
7116 1 24.3418 29.7803 3.18549
7120 1 25.8324 28.8862 5.53703
7131 2 27.2901 27.927 4.40774
7130 1 27.279 29.7295 3.092
7134 1 28.7562 28.8963 5.56561
11 1 0.554603 2.27091 7.98
13 7 0.518736 0.546556 8.97177
9 2 2.04695 1.41644 6.7796
14 7 2.00542 3.12152 8.97177
25 1 3.54164 2.25583 7.95319
27 7 3.4921 0.546556 8.97177
23 2 5.01982 1.39933 6.74326
28 7 4.97878 3.12152 8.97177
39 1 6.52394 2.25328 7.90109
41 7 6.46546 0.546556 8.97177
37 2 7.97594 1.50244 6.66051
42 7 7.95215 3.12152 8.97177
53 1 9.43744 2.25604 7.88683
55 7 9.43883 0.546556 8.97177
51 2 10.9253 1.39034 6.71344
56 7 10.9255 3.12152 8.97177
67 1 12.4076 2.21582 7.9239
69 7 12.4122 0.546556 8.97177
65 2 13.9098 1.40079 6.73105
70 7 13.8989 3.12152 8.97177
81 1 15.3903 2.27337 7.92633
83 7 15.3856 0.546556 8.97177
79 2 16.8886 1.41451 6.75288
84 7 16.8722 3.12152 8.97177
95 1 18.3738 2.28595 7.94703
97 7 18.3589 0.546556 8.97177
93 2 19.864 1.42327 6.76778
98 7 19.8456 3.12152 8.97177
109 1 21.3434 2.28047 7.95509
111 7 21.3323 0.546556 8.97177
107 2 22.8459 1.41234 6.75346
112 7 22.819 3.12152 8.97177
123 1 24.3092 2.26182 7.95203
125 7 24.3056 0.546556 8.97177
121 2 25.7269 1.43721 6.80509
126 7 25.7923 3.12152 8.97177
137 1 27.2797 2.24048 7.92085
139 7 27.279 0.546556 8.97177
135 2 28.8043 1.45229 6.78394
140 7 28.7657 3.12152 8.97177
1413 7 0.518736 5.69649 8.97177
10 2 0.544226 3.98989 6.78617
12 1 2.03973 4.84873 7.95861
1427 7 3.4921 5.69649 8.97177
24 2 3.52229 3.98365 6.76241
26 1 5.01466 4.84153 7.93519
1441 7 6.46546 5.69649 8.97177
38 2 6.48969 3.98596 6.73893
40 1 7.98875 4.84848 7.91801
1455 7 9.43883 5.69649 8.97177
52 2 9.45595 3.98992 6.71847
54 1 10.9085 4.87838 7.91475
1469 7 12.4122 5.69649 8.97177
66 2 12.4122 3.97984 6.73038
68 1 13.9368 4.87116 7.92038
1483 7 15.3856 5.69649 8.97177
80 2 15.4041 3.98804 6.73146
82 1 16.8748 4.85128 7.93141
1497 7 18.3589 5.69649 8.97177
94 2 18.3709 3.98533 6.74847
96 1 19.8651 4.82635 7.93748
1511 7 21.3323 5.69649 8.97177
108 2 21.3509 3.99775 6.76004
110 1 22.8324 4.84412 7.96707
1525 7 24.3056 5.69649 8.97177
122 2 24.3222 3.98362 6.77061
124 1 25.8001 4.84308 7.94456
1539 7 27.279 5.69649 8.97177
136 2 27.277 3.97059 6.75416
138 1 28.7598 4.838 7.93575
1411 1 0.547105 7.43614 7.96052
1410 2 0.540493 9.16518 6.76527
1409 2 2.02929 6.56984 6.76779
1414 7 2.00542 8.27145 8.97177
1425 1 3.52324 7.42847 7.94332
1424 2 3.51651 9.15025 6.75696
1423 2 5.00322 6.56608 6.74661
1428 7 4.97878 8.27145 8.97177
1439 1 6.49657 7.42633 7.9236
1438 2 6.48611 9.14868 6.73731
1437 2 7.97482 6.56342 6.72712
1442 7 7.95215 8.27145 8.97177
1452 2 9.3743 9.09579 6.65082
1453 1 9.46084 7.44729 7.88456
1451 2 10.937 6.58317 6.70558
1456 7 10.9255 8.27145 8.97177
1467 1 12.425 7.45031 7.88071
1466 2 12.5072 9.09025 6.64919
1465 2 13.9161 6.56749 6.72063
1470 7 13.8989 8.27145 8.97177
1481 1 15.3974 7.41739 7.92386
1480 2 15.4001 9.13531 6.73448
1479 2 16.8798 6.56225 6.73479
1484 7 16.8722 8.27145 8.97177
1495 1 18.3519 7.43891 7.92555
1494 2 18.3827 9.1298 6.742
1493 2 19.8456 6.55481 6.73038
1498 7 19.8456 8.27145 8.97177
1509 1 21.3999 7.45101 7.92551
1508 2 21.302 9.17457 6.81961
1507 2 22.8454 6.49881 6.82251
1512 7 22.819 8.27145 8.97177
1523 1 24.2949 7.42968 7.92918
1522 2 24.3544 9.16137 6.80186
1521 2 25.7777 6.54982 6.7464
1526 7 25.7923 8.27145 8.97177
1537 1 27.2845 7.3753 7.94488
1536 2 27.279 9.12978 6.73038
1535 2 28.7613 6.54809 6.74143
1540 7 28.7657 8.27145 8.97177
2813 7 0.518736 10.8464 8.97177
2809 2 2.02954 11.7336 6.7696
1412 1 2.03258 10.0153 7.95037
2827 7 3.4921 10.8464 8.97177
2823 2 5.00193 11.7308 6.74498
1426 1 5.01112 10.007 7.93471
2841 7 6.46546 10.8464 8.97177
2837 2 7.97576 11.7202 6.72028
1440 1 8.00234 9.98651 7.8905
2855 7 9.43883 10.8464 8.97177
2851 2 10.9292 11.8138 6.65244
1454 1 10.9255 9.9881 7.91623
2869 7 12.4122 10.8464 8.97177
2865 2 13.8962 11.7039 6.72261
1468 1 13.8802 9.97832 7.88943
2883 7 15.3856 10.8464 8.97177
2879 2 16.891 11.6976 6.73687
1482 1 16.8796 9.98275 7.92892
2897 7 18.3589 10.8464 8.97177
2893 2 19.8627 11.7067 6.76313
1496 1 19.8552 9.99142 7.95651
2911 7 21.3323 10.8464 8.97177
2907 2 22.8232 11.6885 6.75504
1510 1 22.8351 9.96415 7.93497
2925 7 24.3056 10.8464 8.97177
2921 2 25.7903 11.7112 6.75355
1524 1 25.7684 10.0077 7.9569
2939 7 27.279 10.8464 8.97177
2935 2 28.7732 11.7157 6.75749
1538 1 28.811 10.0033 7.9541
2811 1 0.536921 12.6017 7.95757
2810 2 0.526639 14.3176 6.7721
2812 1 2.0247 15.1711 7.93974
2814 7 2.00542 13.4214 8.97177
2825 1 3.52041 12.5947 7.93729
2824 2 3.50595 14.3047 6.7405
2826 1 5.00471 15.1677 7.90654
2828 7 4.97878 13.4214 8.97177
2839 1 6.49382 12.5713 7.9313
2838 2 6.47863 14.233 6.78856
2840 1 7.9376 15.1533 7.90596
2842 7 7.95215 13.4214 8.97177
2853 1 9.46582 12.5669 7.88708
2852 2 9.42993 14.2974 6.73128
2854 5 10.9196 15.1439 7.92019
2856 7 10.9255 13.4214 8.97177
2867 1 12.3877 12.5535 7.89052
2866 6 12.4157 14.2873 6.73552
2868 5 13.8998 15.1337 7.92927
2870 7 13.8989 13.4214 8.97177
2881 5 15.3799 12.5546 7.92368
2880 6 15.391 14.2797 6.74311
2882 5 16.8783 15.138 7.93533
2884 7 16.8722 13.4214 8.97177
2895 1 18.3643 12.5628 7.9369
2894 2 18.3698 14.2828 6.75165
2896 1 19.8571 15.1436 7.94132
2898 7 19.8456 13.4214 8.97177
2909 1 21.3453 12.5582 7.94494
2908 2 21.3456 14.2834 6.75769
2910 1 22.8318 15.1467 7.94403
2912 7 22.819 13.4214 8.97177
2923 1 24.3125 12.5516 7.94643
2922 2 24.3146 14.2844 6.76079
2924 1 25.8005 15.151 7.94717
2926 7 25.7923 13.4214 8.97177
2937 1 27.284 12.567 7.94848
2936 2 27.2849 14.2908 6.7637
2938 1 28.7722 15.1529 7.94958
2940 7 28.7657 13.4214 8.97177
4211 1 0.524904 17.7322 7.94001
4213 7 0.518736 15.9964 8.97177
4209 2 2.0092 16.8661 6.74075
4225 1 3.49847 17.6866 7.94558
4227 7 3.4921 15.9964 8.97177
4223 2 4.93379 16.8915 6.77698
4239 1 6.45639 17.6928 7.90313
4241 7 6.46546 15.9964 8.97177
4237 2 8.00082 16.8864 6.79296
4253 1 9.438 17.7131 7.94141
4255 7 9.43883 15.9964 8.97177
4251 2 10.9218 16.8675 6.73602
4267 1 12.4178 17.7135 7.9376
4269 7 12.4122 15.9964 8.97177
4265 2 13.9063 16.8592 6.74988
4281 1 15.3965 17.7142 7.94058
4283 7 15.3856 15.9964 8.97177
4279 2 16.883 16.8613 6.75138
4295 1 18.3731 17.7202 7.93908
4297 7 18.3589 15.9964 8.97177
4293 2 19.8587 16.8653 6.75299
4309 1 21.3491 17.7306 7.9399
4311 7 21.3323 15.9964 8.97177
4307 2 22.8337 16.8712 6.75515
4323 1 24.3214 17.7446 7.94024
4325 7 24.3056 15.9964 8.97177
4321 2 25.8057 16.8759 6.75715
4337 1 27.2947 17.7399 7.93919
4339 7 27.279 15.9964 8.97177
4335 2 28.783 16.8743 6.75054
5613 7 0.518736 21.1463 8.97177
4210 2 0.510006 19.4191 6.74813
4212 1 1.9947 20.3074 7.94058
4214 7 2.00542 18.5713 8.97177
5627 7 3.4921 21.1463 8.97177
4224 2 3.4921 19.4296 6.73038
4226 1 4.99422 20.2971 7.92111
4228 7 4.97878 18.5713 8.97177
5641 7 6.46546 21.1463 8.97177
4238 2 6.46063 19.4176 6.74
4240 1 7.93613 20.2704 7.94217
4242 7 7.95215 18.5713 8.97177
5655 7 9.43883 21.1463 8.97177
4252 2 9.42747 19.4221 6.76409
4254 1 10.9327 20.2832 7.95552
4256 7 10.9255 18.5713 8.97177
5669 7 12.4122 21.1463 8.97177
4266 2 12.4251 19.4325 6.76764
4268 1 13.9203 20.2934 7.94747
4270 7 13.8989 18.5713 8.97177
5683 7 15.3856 21.1463 8.97177
4280 2 15.4006 19.4413 6.75668
4282 1 16.8906 20.2916 7.95051
4284 7 16.8722 18.5713 8.97177
5697 7 18.3589 21.1463 8.97177
4294 2 18.3729 19.4467 6.75168
4296 1 19.8586 20.306 7.93818
4298 7 19.8456 18.5713 8.97177
5711 7 21.3323 21.1463 8.97177
4308 2 21.3465 19.4448 6.75242
4310 1 22.8349 20.3341 7.91323
4312 7 22.819 18.5713 8.97177
5725 7 24.3056 21.1463 8.97177
4322 2 24.3239 19.4599 6.74345
4324 1 25.8159 20.3345 7.91094
4326 7 25.7923 18.5713 8.97177
5739 7 27.279 21.1463 8.97177
4336 2 27.3028 19.4519 6.75161
4338 1 28.794 20.3183 7.92282
4340 7 28.7657 18.5713 8.97177
5611 1 0.527134 22.8341 7.98156
5609 2 1.95125 22.0196 6.82835
5614 7 2.00542 23.7212 8.97177
5625 1 3.50333 22.8168 7.94339
5623 2 5.04662 22.0217 6.8172
5628 7 4.97878 23.7212 8.97177
5639 1 6.47618 22.8332 7.96731
5637 2 7.95974 21.9815 6.75979
5642 7 7.95215 23.7212 8.97177
5653 1 9.45058 22.8448 7.96317
5651 2 10.9387 22.0024 6.77998
5656 7 10.9255 23.7212 8.97177
5667 1 12.4395 22.8568 7.96105
5665 2 13.9191 22.0073 6.7604
5670 7 13.8989 23.7212 8.97177
5681 1 15.4276 22.8705 7.93355
5679 2 16.8896 21.9526 6.80987
5684 7 16.8722 23.7212 8.97177
5695 1 18.3649 22.8777 7.92822
5693 2 19.8499 22.024 6.75414
5698 7 19.8456 23.7212 8.97177
5709 1 21.3673 22.8592 7.91718
5707 2 22.7495 21.9723 6.68189
5712 7 22.819 23.7212 8.97177
5723 1 24.3056 22.8629 7.91623
5721 2 25.9015 21.9657 6.67768
5726 7 25.7923 23.7212 8.97177
5737 1 27.267 22.8569 7.92838
5735 2 28.7296 22.0501 6.80618
5740 7 28.7657 23.7212 8.97177
7013 7 0.518736 26.2962 8.97177
5610 2 0.537798 24.5545 6.78703
7009 2 2.01954 27.1349 6.7878
5612 1 2.01969 25.4061 7.96972
7027 7 3.4921 26.2962 8.97177
5624 2 3.50298 24.5453 6.77991
7023 2 4.99114 27.1362 6.79222
5626 1 4.98849 25.4055 7.96977
7041 7 6.46546 26.2962 8.97177
5638 2 6.4711 24.5578 6.78146
7037 2 7.96645 27.1427 6.79788
5640 1 7.96344 25.4185 7.97633
7055 7 9.43883 26.2962 8.97177
5652 2 9.45204 24.5684 6.78782
7051 2 10.946 27.146 6.80236
5654 1 10.9438 25.4239 7.97991
7069 7 12.4122 26.2962 8.97177
5666 2 12.4373 24.5723 6.78431
7065 2 13.9293 27.1439 6.7965
5668 1 13.924 25.4269 7.98042
7083 7 15.3856 26.2962 8.97177
5680 2 15.3575 24.6048 6.8259
7079 2 16.8987 27.1355 6.78833
5682 1 16.9017 25.4047 7.94446
7097 7 18.3589 26.2962 8.97177
5694 2 18.4387 24.6105 6.81859
7093 2 19.8681 27.1447 6.78178
5696 1 19.886 25.4305 7.9651
7111 7 21.3323 26.2962 8.97177
5708 2 21.3581 24.5804 6.75471
7107 2 22.8383 27.1687 6.77246
5710 1 22.8636 25.4364 7.93118
7125 7 24.3056 26.2962 8.97177
5722 2 24.321 24.6843 6.69573
7121 2 25.8102 27.1591 6.78517
5724 1 25.7781 25.4258 7.9393
7139 7 27.279 26.2962 8.97177
5736 2 27.2876 24.573 6.76379
7135 2 28.7842 27.156 6.79054
5738 1 28.7766 25.426 7.96072
7011 1 0.52902 27.997 7.97208
7010 2 0.531652 29.7219 6.78704
7014 7 2.00542 28.8712 8.97177
7025 1 3.50372 27.9929 7.9785
7024 2 3.50694 29.7211 6.79736
7028 7 4.97878 28.8712 8.97177
7039 1 6.47786 27.9952 7.98521
7038 2 6.48242 29.7234 6.80624
7042 7 7.95215 28.8712 8.97177
7053 1 9.45538 27.9988 7.99238
7052 2 9.45881 29.7253 6.81595
7056 7 10.9255 28.8712 8.97177
7067 1 12.4367 27.9988 7.9948
7066 2 12.4373 29.7208 6.8239
7070 7 13.8989 28.8712 8.97177
7081 1 15.4174 27.9895 7.98582
7080 2 15.4145 29.7221 6.81664
7084 7 16.8722 28.8712 8.97177
7095 1 18.3886 27.9905 7.97908
7094 2 18.3837 29.7243 6.80972
7098 7 19.8456 28.8712 8.97177
7108 2 21.2723 29.6739 6.73425
7109 1 21.3584 28.027 7.95134
7112 7 22.819 28.8712 8.97177
7123 1 24.3314 28.0359 7.94706
7122 2 24.4155 29.6786 6.72771
7126 7 25.7923 28.8712 8.97177
7140 7 28.7657 28.8712 8.97177
7137 1 27.299 28.0099 7.97034
7136 2 27.311 29.7283 6.78258
8401 7 0.518736 31.4461 2.03646
8415 7 3.4921 31.4461 2.03646
8429 7 6.46546 31.4461 2.03646
8443 7 9.43883 31.4461 2.03646
8457 7 12.4122 31.4461 2.03646
8471 7 15.3856 31.4461 2.03646
8485 7 18.3589 31.4461 2.03646
8499 7 21.3323 31.4461 2.03646
8513 7 24.3056 31.4461 2.03646
8527 7 27.279 31.4461 2.03646
8402 7 2.00542 34.0211 2.03646
8416 7 4.97878 34.0211 2.03646
8430 7 7.95215 34.0211 2.03646
8444 7 10.9255 34.0211 2.03646
8458 7 13.8989 34.0211 2.03646
8472 7 16.8722 34.0211 2.03646
8486 7 19.8456 34.0211 2.03646
8500 7 22.819 34.0211 2.03646
8514 7 25.7923 34.0211 2.03646
8528 7 28.7657 34.0211 2.03646
9801 7 0.518736 36.5961 2.03646
9802 7 2.00542 39.171 2.03646
9815 7 3.4921 36.5961 2.03646
9816 7 4.97878 39.171 2.03646
9829 7 6.46546 36.5961 2.03646
9830 7 7.95215 39.171 2.03646
9843 7 9.43883 36.5961 2.03646
9844 7 10.9255 39.171 2.03646
9857 7 12.4122 36.5961 2.03646
9858 7 13.8989 39.171 2.03646
9871 7 15.3856 36.5961 2.03646
9872 7 16.8722 39.171 2.03646
9885 7 18.3589 36.5961 2.03646
9886 7 19.8456 39.171 2.03646
9899 7 21.3323 36.5961 2.03646
9900 7 22.819 39.171 2.03646
9913 7 24.3056 36.5961 2.03646
9914 7 25.7923 39.171 2.03646
9927 7 27.279 36.5961 2.03646
9928 7 28.7657 39.171 2.03646
11201 7 0.518736 41.746 2.03646
11215 7 3.4921 41.746 2.03646
11229 7 6.46546 41.746 2.03646
11243 7 9.43883 41.746 2.03646
11257 7 12.4122 41.746 2.03646
11271 7 15.3856 41.746 2.03646
11285 7 18.3589 41.746 2.03646
11299 7 21.3323 41.746 2.03646
11313 7 24.3056 41.746 2.03646
11327 7 27.279 41.746 2.03646
11202 7 2.00542 44.321 2.03646
11216 7 4.97878 44.321 2.03646
11230 7 7.95215 44.321 2.03646
11244 7 10.9255 44.321 2.03646
11258 7 13.8989 44.321 2.03646
11272 7 16.8722 44.321 2.03646
11286 7 19.8456 44.321 2.03646
11300 7 22.819 44.321 2.03646
11314 7 25.7923 44.321 2.03646
11328 7 28.7657 44.321 2.03646
12601 7 0.518736 46.8959 2.03646
12615 7 3.4921 46.8959 2.03646
12629 7 6.46546 46.8959 2.03646
12643 7 9.43883 46.8959 2.03646
12657 7 12.4122 46.8959 2.03646
12671 7 15.3856 46.8959 2.03646
12685 7 18.3589 46.8959 2.03646
12699 7 21.3323 46.8959 2.03646
12713 7 24.3056 46.8959 2.03646
12727 7 27.279 46.8959 2.03646
12602 7 2.00542 49.4709 2.03646
12616 7 4.97878 49.4709 2.03646
12630 7 7.95215 49.4709 2.03646
12644 7 10.9255 49.4709 2.03646
12658 7 13.8989 49.4709 2.03646
12672 7 16.8722 49.4709 2.03646
12686 7 19.8456 49.4709 2.03646
12700 7 22.819 49.4709 2.03646
12714 7 25.7923 49.4709 2.03646
12728 7 28.7657 49.4709 2.03646
14001 7 0.518736 52.0459 2.03646
14015 7 3.4921 52.0459 2.03646
14029 7 6.46546 52.0459 2.03646
14043 7 9.43883 52.0459 2.03646
14057 7 12.4122 52.0459 2.03646
14071 7 15.3856 52.0459 2.03646
14085 7 18.3589 52.0459 2.03646
14099 7 21.3323 52.0459 2.03646
14113 7 24.3056 52.0459 2.03646
14127 7 27.279 52.0459 2.03646
15401 7 0.518736 57.1958 2.03646
14002 7 2.00542 54.6208 2.03646
15415 7 3.4921 57.1958 2.03646
14016 7 4.97878 54.6208 2.03646
15429 7 6.46546 57.1958 2.03646
14030 7 7.95215 54.6208 2.03646
15443 7 9.43883 57.1958 2.03646
14044 7 10.9255 54.6208 2.03646
15457 7 12.4122 57.1958 2.03646
14058 7 13.8989 54.6208 2.03646
15471 7 15.3856 57.1958 2.03646
14072 7 16.8722 54.6208 2.03646
15485 7 18.3589 57.1958 2.03646
14086 7 19.8456 54.6208 2.03646
15499 7 21.3323 57.1958 2.03646
14100 7 22.819 54.6208 2.03646
15513 7 24.3056 57.1958 2.03646
14114 7 25.7923 54.6208 2.03646
15527 7 27.279 57.1958 2.03646
14128 7 28.7657 54.6208 2.03646
15402 7 2.00542 59.7708 2.03646
15416 7 4.97878 59.7708 2.03646
15430 7 7.95215 59.7708 2.03646
15444 7 10.9255 59.7708 2.03646
15458 7 13.8989 59.7708 2.03646
15472 7 16.8722 59.7708 2.03646
15486 7 19.8456 59.7708 2.03646
15500 7 22.819 59.7708 2.03646
15514 7 25.7923 59.7708 2.03646
15528 7 28.7657 59.7708 2.03646
8405 2 0.545404 33.1748 4.34122
8407 1 0.537666 31.4474 5.56331
8403 1 2.03671 32.3189 3.15982
7006 2 2.02883 30.5904 4.34127
8419 2 3.51922 33.1772 4.35614
8421 1 3.51279 31.4487 5.5763
8417 1 5.01137 32.3233 3.17204
7020 2 5.00321 30.5947 4.3516
8433 2 6.49664 33.1798 4.36799
8435 1 6.48883 31.4517 5.5865
8431 1 7.99524 32.3322 3.18303
7034 2 7.97933 30.6002 4.36103
8447 2 9.47767 33.1841 4.38529
8449 1 9.46459 31.4544 5.59964
8445 1 10.9798 32.3379 3.21623
7048 2 10.949 30.5989 4.369
8461 2 12.4406 33.0806 4.45779
8463 1 12.4388 31.4425 5.61636
8459 1 13.902 32.3421 3.22099
7062 2 13.9274 30.601 4.37089
8475 2 15.405 33.1868 4.39583
8477 1 15.4123 31.4553 5.60404
8473 1 16.8942 32.3457 3.19307
7076 2 16.8952 30.6083 4.36396
8489 2 18.3905 33.1877 4.39223
8491 1 18.3872 31.4561 5.59646
8487 1 19.8911 32.3443 3.21536
7090 2 19.8663 30.6088 4.35732
8503 2 21.3499 33.0809 4.45078
8505 1 21.3654 31.4403 5.61861
8501 1 22.8135 32.3515 3.20947
7104 2 22.8382 30.6072 4.35932