ITEM: TIMESTEP
100000
ITEM: NUMBER OF ATOMS
81200
ITEM: BOX BOUNDS pp pp pp
4.4619772622430454e-01 2.9785329816980106e+02
4.3832146714122516e-01 2.9920939050702469e+02
0.0000000000000000e+00 4.9031656433928198e+01
ITEM: ATOMS id type x y z
1 7 0.483374 0.509053 2.03646
2 7 1.97041 3.08467 2.03646
15 7 3.45744 0.509053 2.03646
16 7 4.94448 3.08467 2.03646
29 7 6.43152 0.509053 2.03646
30 7 7.91855 3.08467 2.03646
43 7 9.40559 0.509053 2.03646
44 7 10.8926 3.08467 2.03646
57 7 12.3797 0.509053 2.03646
58 7 13.8667 3.08467 2.03646
71 7 15.3537 0.509053 2.03646
72 7 16.8408 3.08467 2.03646
85 7 18.3278 0.509053 2.03646
86 7 19.8148 3.08467 2.03646
99 7 21.3019 0.509053 2.03646
100 7 22.7889 3.08467 2.03646
113 7 24.2759 0.509053 2.03646
114 7 25.763 3.08467 2.03646
127 7 27.25 0.509053 2.03646
128 7 28.737 3.08467 2.03646
1401 7 0.483374 5.66028 2.03646
1415 7 3.45744 5.66028 2.03646
1429 7 6.43152 5.66028 2.03646
1443 7 9.40559 5.66028 2.03646
1457 7 12.3797 5.66028 2.03646
1471 7 15.3537 5.66028 2.03646
1485 7 18.3278 5.66028 2.03646
1499 7 21.3019 5.66028 2.03646
1513 7 24.2759 5.66028 2.03646
1527 7 27.25 5.66028 2.03646
1402 7 1.97041 8.23589 2.03646
1416 7 4.94448 8.23589 2.03646
1430 7 7.91855 8.23589 2.03646
1444 7 10.8926 8.23589 2.03646
1458 7 13.8667 8.23589 2.03646
1472 7 16.8408 8.23589 2.03646
1486 7 19.8148 8.23589 2.03646
1500 7 22.7889 8.23589 2.03646
1514 7 25.763 8.23589 2.03646
1528 7 28.737 8.23589 2.03646
2801 7 0.483374 10.8115 2.03646
2815 7 3.45744 10.8115 2.03646
2829 7 6.43152 10.8115 2.03646
2843 7 9.40559 10.8115 2.03646
2857 7 12.3797 10.8115 2.03646
2871 7 15.3537 10.8115 2.03646
2885 7 18.3278 10.8115 2.03646
2899 7 21.3019 10.8115 2.03646
2913 7 24.2759 10.8115 2.03646
2927 7 27.25 10.8115 2.03646
2802 7 1.97041 13.3871 2.03646
2816 7 4.94448 13.3871 2.03646
2830 7 7.91855 13.3871 2.03646
2844 7 10.8926 13.3871 2.03646
2858 7 13.8667 13.3871 2.03646
2872 7 16.8408 13.3871 2.03646
2886 7 19.8148 13.3871 2.03646
2900 7 22.7889 13.3871 2.03646
2914 7 25.763 13.3871 2.03646
2928 7 28.737 13.3871 2.03646
4201 7 0.483374 15.9627 2.03646
4215 7 3.45744 15.9627 2.03646
4229 7 6.43152 15.9627 2.03646
4243 7 9.40559 15.9627 2.03646
4257 7 12.3797 15.9627 2.03646
4271 7 15.3537 15.9627 2.03646
4285 7 18.3278 15.9627 2.03646
4299 7 21.3019 15.9627 2.03646
4313 7 24.2759 15.9627 2.03646
4327 7 27.25 15.9627 2.03646
5601 7 0.483374 21.114 2.03646
4202 7 1.97041 18.5383 2.03646
5615 7 3.45744 21.114 2.03646
4216 7 4.94448 18.5383 2.03646
5629 7 6.43152 21.114 2.03646
4230 7 7.91855 18.5383 2.03646
5643 7 9.40559 21.114 2.03646
4244 7 10.8926 18.5383 2.03646
5657 7 12.3797 21.114 2.03646
4258 7 13.8667 18.5383 2.03646
5671 7 15.3537 21.114 2.03646
4272 7 16.8408 18.5383 2.03646
5685 7 18.3278 21.114 2.03646
4286 7 19.8148 18.5383 2.03646
5699 7 21.3019 21.114 2.03646
4300 7 22.7889 18.5383 2.03646
5713 7 24.2759 21.114 2.03646
4314 7 25.763 18.5383 2.03646
5727 7 27.25 21.114 2.03646
4328 7 28.737 18.5383 2.03646
5602 7 1.97041 23.6896 2.03646
5616 7 4.94448 23.6896 2.03646
5630 7 7.91855 23.6896 2.03646
5644 7 10.8926 23.6896 2.03646
5658 7 13.8667 23.6896 2.03646
5672 7 16.8408 23.6896 2.03646
5686 7 19.8148 23.6896 2.03646
5700 7 22.7889 23.6896 2.03646
5714 7 25.763 23.6896 2.03646
5728 7 28.737 23.6896 2.03646
7001 7 0.483374 26.2652 2.03646
7015 7 3.45744 26.2652 2.03646
7029 7 6.43152 26.2652 2.03646
7043 7 9.40559 26.2652 2.03646
7057 7 12.3797 26.2652 2.03646
7071 7 15.3537 26.2652 2.03646
7085 7 18.3278 26.2652 2.03646
7099 7 21.3019 26.2652 2.03646
7113 7 24.2759 26.2652 2.03646
7127 7 27.25 26.2652 2.03646
7002 7 1.97041 28.8408 2.03646
7016 7 4.94448 28.8408 2.03646
7030 7 7.91855 28.8408 2.03646
7044 7 10.8926 28.8408 2.03646
7058 7 13.8667 28.8408 2.03646
7072 7 16.8408 28.8408 2.03646
7086 7 19.8148 28.8408 2.03646
7100 7 22.7889 28.8408 2.03646
7114 7 25.763 28.8408 2.03646
7128 7 28.737 28.8408 2.03646
5 2 0.488868 2.23049 4.44972
7 1 0.507132 0.520052 5.70096
3 1 1.96523 1.35834 3.25558
8 1 1.98803 3.09597 5.66003
19 2 3.4658 2.22615 4.42349
21 1 3.47959 0.514533 5.66046
17 1 4.94774 1.35605 3.23164
22 1 4.96366 3.09133 5.63017
33 2 6.43978 2.22181 4.39661
35 1 6.4646 0.503365 5.65022
31 1 7.92379 1.35679 3.21419
36 1 7.93491 3.10311 5.59786
47 2 9.42618 2.22553 4.38769
49 1 9.40683 0.499037 5.63347
45 1 10.8983 1.35518 3.20041
50 1 10.8831 3.07568 5.57826
61 2 12.3902 2.21797 4.36955
63 1 12.3852 0.503388 5.60887
59 1 13.8807 1.35455 3.19743
64 1 13.8997 3.07659 5.5801
75 2 15.3618 2.22745 4.38882
77 1 15.3682 0.512019 5.61914
73 1 16.8635 1.35573 3.20723
78 1 16.8586 3.09163 5.60633
89 2 18.3512 2.22535 4.38702
91 1 18.3539 0.515033 5.62611
87 1 19.8459 1.35684 3.20937
92 1 19.8379 3.09647 5.61221
103 2 21.3222 2.23369 4.39339
105 1 21.3332 0.506259 5.63705
101 1 22.8012 1.34933 3.23618
106 1 22.8114 3.08889 5.61001
117 2 24.2882 2.21932 4.39918
119 1 24.265 0.481933 5.61834
115 1 25.7863 1.39108 3.22405
120 1 25.7792 3.05149 5.59513
131 2 27.2442 2.29995 4.31121
133 1 27.25 0.509053 5.50412
129 1 28.7045 1.35478 3.18546
134 1 28.7158 3.05752 5.57158
147 1 30.184 0.518232 5.56967
1407 1 0.496839 5.67691 5.65329
4 1 0.477014 3.93874 3.25067
6 2 1.97556 4.80889 4.42052
1421 1 3.47254 5.67574 5.63047
18 1 3.45406 3.94085 3.2266
20 2 4.95082 4.80847 4.39406
1435 1 6.44456 5.67524 5.60512
32 1 6.42986 3.94175 3.19684
34 2 7.92628 4.81274 4.36595
1449 1 9.41904 5.6791 5.58101
46 1 9.41406 3.94051 3.18028
48 2 10.9006 4.80886 4.35283
1463 1 12.3907 5.70022 5.55886
60 1 12.3916 3.93713 3.17371
62 2 13.8844 4.80474 4.35294
1477 1 15.3725 5.66888 5.58088
74 1 15.3725 3.93396 3.18351
76 2 16.8627 4.80315 4.36815
1491 1 18.3501 5.6703 5.59966
88 1 18.3533 3.9422 3.1901
90 2 19.8362 4.80192 4.38579
1505 1 21.3381 5.66848 5.62161
102 1 21.3232 3.94707 3.19931
104 2 22.8091 4.80132 4.38198
1519 1 24.2707 5.6862 5.58942
116 1 24.2836 3.92966 3.18882
118 2 25.7565 4.79324 4.36503
1533 1 27.2437 5.65807 5.56908
130 1 27.2333 3.93684 3.15857
132 2 28.7282 4.79562 4.34445
1405 2 0.488843 7.39274 4.41608
1404 1 0.482701 9.11057 3.22098
1403 1 1.96652 6.5254 3.22429
1408 1 1.98441 8.26026 5.62856
1419 2 3.46247 7.39287 4.39449
1418 1 3.45574 9.11158 3.20054
1417 1 4.94046 6.52628 3.19876
1422 1 4.95654 8.25896 5.60565
1433 2 6.43375 7.39119 4.36586
1432 1 6.42843 9.11447 3.17518
1431 1 7.91936 6.52577 3.17162
1436 1 7.92264 8.25243 5.57279
1447 2 9.41712 7.39146 4.34995
1446 1 9.40991 9.11035 3.16515
1445 1 10.9017 6.52582 3.16732
1450 1 10.9028 8.26678 5.58593
1461 2 12.3876 7.37622 4.35205
1460 1 12.3875 9.10097 3.16029
1459 1 13.883 6.5155 3.1608
1464 1 13.8883 8.24316 5.55894
1475 2 15.3769 7.37985 4.34422
1474 1 15.3744 9.09709 3.15364
1473 1 16.8716 6.51422 3.16982
1478 1 16.8637 8.24481 5.57845
1489 2 18.348 7.38196 4.37006
1488 1 18.3576 9.09025 3.17182
1487 1 19.8029 6.49632 3.17511
1492 1 19.8444 8.25832 5.60867
1503 2 21.3019 7.37735 4.27785
1502 1 21.334 9.12245 3.18615
1501 1 22.8325 6.51361 3.19488
1506 1 22.7889 8.23589 5.50412
1517 2 24.3372 7.33717 4.30682
1516 1 24.2531 9.07877 3.18124
1515 1 25.7513 6.50784 3.15612
1520 1 25.7248 8.23736 5.56756
1531 2 27.2378 7.37724 4.34241
1530 1 27.2307 9.08835 3.15049
1529 1 28.7253 6.51476 3.15097
1534 1 28.7289 8.24023 5.55698
2807 1 0.495528 10.8465 5.62603
2803 1 1.9718 11.6886 3.20165
1406 2 1.97721 9.97649 4.39477
2821 1 3.47364 10.8451 5.60742
2817 1 4.94509 11.7009 3.18592
1420 2 4.95062 9.97837 4.37305
2835 1 6.44485 10.8424 5.58695
2831 1 7.91709 11.697 3.16987
1434 2 7.92481 9.9795 4.35199
2849 1 9.42229 10.8303 5.58413
2845 1 10.8945 11.6819 3.15636
1448 2 10.8989 9.96812 4.34864
2863 1 12.3738 10.8205 5.57841
2859 1 13.8724 11.6776 3.15241
1462 2 13.8752 9.96546 4.33768
2877 1 15.3612 10.8222 5.56524
2873 1 16.856 11.6736 3.15436
1476 2 16.8591 9.95779 4.34483
2891 1 18.3453 10.8183 5.57332
2887 1 19.8357 11.6609 3.15881
1490 2 19.8363 9.95871 4.3617
2905 1 21.3305 10.7906 5.57549
2901 1 22.7863 11.6697 3.14371
1504 2 22.7933 10.0278 4.29869
2919 1 24.2608 10.7858 5.56256
2915 1 25.7503 11.6647 3.14587
1518 2 25.7481 9.94725 4.3398
2933 1 27.2447 10.8158 5.55427
2929 1 28.7267 11.6725 3.13288
1532 2 28.7282 9.95564 4.32537
2805 2 0.488625 12.5572 4.39557
2804 1 0.49303 14.2628 3.19077
2806 2 1.97482 15.1338 4.37984
2808 1 1.98226 13.4227 5.60434
2819 2 3.46736 12.5579 4.37893
2818 1 3.45479 14.2681 3.17865
2820 2 4.89074 15.0992 4.31699
2822 1 4.97297 13.4487 5.5908
2833 2 6.43441 12.5651 4.36241
2832 5 6.42602 14.2905 3.19344
2834 2 7.96634 15.0916 4.30369
2836 1 7.90492 13.4399 5.57347
2847 2 9.40012 12.5475 4.3443
2846 1 9.39934 14.2646 3.14808
2848 2 10.8843 15.1279 4.33815
2850 1 10.8893 13.4177 5.55073
2861 2 12.3844 12.5399 4.33397
2860 1 12.3816 14.2639 3.14608
2862 2 13.8675 15.1213 4.33491
2864 1 13.8679 13.3994 5.56074
2875 2 15.3609 12.5384 4.33714
2874 1 15.3583 14.2588 3.14927
2876 2 16.8457 15.1176 4.33521
2878 1 16.8473 13.3978 5.56497
2889 2 18.3405 12.5334 4.33981
2888 1 18.3349 14.2525 3.14896
2890 2 19.8209 15.1159 4.33122
2892 1 19.8265 13.3938 5.56264
2903 2 21.3093 12.5295 4.34139
2902 1 21.3044 14.2528 3.14457
2904 2 22.7937 15.1157 4.32394
2906 1 22.7967 13.3927 5.55549
2917 2 24.2766 12.5286 4.33279
2916 1 24.2756 14.2517 3.13688
2918 2 25.7657 15.1173 4.31611
2920 1 25.7647 13.3951 5.54842
2931 2 27.2455 12.534 4.32129
2930 1 27.2459 14.2544 3.12829
2932 2 28.7384 15.1226 4.30749
2934 1 28.7396 13.4019 5.53951
4205 2 0.474261 17.6944 4.40316
4207 1 0.461778 15.9901 5.60443
4203 1 1.95853 16.8446 3.19509
4219 2 3.45546 17.694 4.36244
4221 1 3.4934 15.9887 5.58473
4217 1 4.95096 16.8302 3.1986
4233 2 6.4077 17.7495 4.32436
4235 1 6.43152 15.9627 5.50412
4231 1 7.88417 16.8268 3.19118
4249 1 9.36242 15.9798 5.57123
4247 2 9.37773 17.6785 4.35975
4245 1 10.8754 16.8377 3.16165
4261 2 12.3786 17.6908 4.34994
4263 1 12.3755 15.9811 5.56485
4259 1 13.8622 16.8471 3.15117
4275 2 15.3563 17.7008 4.33862
4277 1 15.3573 15.978 5.56271
4273 1 16.8414 16.84 3.14806
4289 2 18.3303 17.7008 4.32977
4291 1 18.3348 15.9782 5.55857
4287 1 19.8151 16.8369 3.13957
4303 2 21.3063 17.6984 4.31864
4305 1 21.3106 15.98 5.55139
4301 1 22.7907 16.8346 3.13022
4317 2 24.2828 17.6993 4.30982
4319 1 24.2846 15.9818 5.54362
4315 1 25.7643 16.8347 3.12239
4331 2 27.2601 17.702 4.30461
4333 1 27.259 15.9871 5.53448
4329 1 28.7384 16.8454 3.11805
5607 1 0.511747 21.0978 5.61173
4206 2 1.89457 20.2083 4.32248
4208 1 1.94998 18.5573 5.5743
5621 1 3.45744 21.114 5.50412
4218 1 3.44133 19.4132 3.2012
4220 2 4.99033 20.2161 4.31593
4222 1 4.96722 18.5333 5.54913
5635 1 6.3933 21.1057 5.58118
4232 1 6.42308 19.3994 3.16149
4234 2 7.8965 20.2534 4.37024
4236 1 7.88395 18.5108 5.58223
4246 1 9.34738 19.377 3.16637
5649 1 9.37479 21.1207 5.604
4248 2 10.8926 20.2554 4.27785
4250 1 10.883 18.5234 5.59503
5663 1 12.4163 21.14 5.59857
4260 1 12.4096 19.3936 3.15807
4262 2 13.8832 20.2739 4.35584
4264 1 13.8755 18.5571 5.57357
5677 1 15.3835 21.1615 5.56834
4274 1 15.3489 19.4238 3.15573
4276 2 16.844 20.2881 4.33866
4278 1 16.8482 18.5626 5.5611
5691 1 18.3162 21.1681 5.55428
4288 1 18.3228 19.426 3.14449
4290 2 19.8107 20.2781 4.32008
4292 1 19.8197 18.5624 5.54872
5705 1 21.3002 21.1332 5.52724
4302 1 21.3023 19.414 3.12527
4304 2 22.8005 20.277 4.30703
4306 1 22.8005 18.5631 5.53674
5719 1 24.2943 21.1483 5.54311
4316 1 24.2797 19.4189 3.12101
4318 2 25.7733 20.2783 4.30152
4320 1 25.7781 18.5659 5.52635
5733 1 27.3109 21.1289 5.51007
4330 1 27.2526 19.4129 3.10242
4332 2 28.695 20.2429 4.24216
4334 1 28.7652 18.5922 5.52126
5605 2 0.493631 22.8047 4.38424
5603 1 1.97378 21.9423 3.21248
5608 1 1.9954 23.6381 5.60567
5619 2 3.4553 22.8749 4.33062
5617 1 4.91342 21.954 3.20558
5622 1 4.93031 23.6452 5.59805
5633 2 6.41844 22.8193 4.36928
5631 1 7.9054 21.9713 3.18068
5636 1 7.91884 23.681 5.59462
5647 2 9.40152 22.8373 4.37016
5645 1 10.8904 22.0195 3.16934
5650 1 10.9069 23.6927 5.59461
5661 2 12.3948 22.8501 4.36716
5659 1 13.8668 21.9882 3.1612
5664 1 13.9189 23.6975 5.58091
5675 2 15.3091 22.8158 4.30219
5673 1 16.8406 22.0164 3.17515
5678 1 16.8408 23.6896 5.50412
5689 2 18.3858 22.8215 4.28575
5687 1 19.8147 21.9953 3.12783
5692 1 19.7935 23.7049 5.55001
5703 2 21.3072 22.8578 4.31816
5701 1 22.7968 21.9965 3.12729
5706 1 22.8102 23.701 5.55317
5717 2 24.2883 22.851 4.31332
5715 1 25.7761 21.9921 3.12138
5720 1 25.7688 23.6943 5.54526
5731 2 27.2685 22.8467 4.30041
5729 1 28.7617 21.9829 3.12562
5734 1 28.7666 23.6693 5.52121
7007 1 0.498006 26.2456 5.60491
5604 1 0.490454 24.5186 3.19671
7003 1 1.98112 27.1138 3.19178
5606 2 1.97736 25.3847 4.38197
7021 1 3.46688 26.2467 5.60265
5618 1 3.45671 24.5361 3.18662
7017 1 4.95408 27.1221 3.19228
5620 2 4.9491 25.3923 4.37866
7035 1 6.43805 26.2531 5.60226
5632 1 6.42557 24.5393 3.18838
7031 1 7.9282 27.1279 3.19195
5634 2 7.92358 25.4023 4.37207
7049 1 9.41776 26.2628 5.60091
5646 1 9.41254 24.5468 3.18136
7045 1 10.9059 27.1342 3.19084
5648 2 10.9056 25.41 4.37053
7063 1 12.4023 26.2644 5.59726
5660 1 12.3897 24.5527 3.17925
7059 1 13.8837 27.1331 3.18698
5662 2 13.8902 25.4091 4.36536
7077 1 15.3926 26.235 5.58496
5674 1 15.3791 24.5526 3.19026
7073 1 16.8473 27.1449 3.16527
5676 2 16.8526 25.4787 4.3039
7091 1 18.3263 26.2377 5.5701
5688 5 18.3105 24.5566 3.17405
7087 1 19.8157 27.14 3.15316
5690 2 19.8146 25.4168 4.33492
7105 1 21.3166 26.2749 5.5513
5702 1 21.3011 24.5684 3.14014
7101 1 22.8039 27.1601 3.13874
5704 2 22.797 25.4247 4.31589
7119 1 24.2922 26.2917 5.53203
5716 1 24.2844 24.5719 3.1272
7115 1 25.7971 27.1611 3.14928
5718 2 25.7753 25.4189 4.30694
7133 1 27.2665 26.2593 5.54713
5730 1 27.2595 24.5644 3.12123
7129 1 28.716 27.1592 3.14948
5732 2 28.7473 25.4173 4.30578
7005 2 0.498256 27.9718 4.37549
7004 1 0.504164 29.6987 3.18817
7008 1 1.98425 28.8342 5.60438
7019 2 3.46997 27.9766 4.37887
7018 1 3.47548 29.7045 3.19502
7022 1 4.95806 28.8369 5.60817
7033 2 6.44384 27.9825 4.38064
7032 1 6.45001 29.7118 3.19954
7036 1 7.93369 28.8412 5.61123
7047 2 9.41994 27.988 4.38119
7046 1 9.4244 29.7191 3.20284
7050 1 10.9106 28.8421 5.61267
7061 2 12.3982 27.9892 4.3788
7060 1 12.3965 29.7203 3.20131
7064 1 13.8916 28.8389 5.60602
7075 2 15.3694 27.989 4.37122
7074 1 15.3648 29.7286 3.19191
7078 1 16.8598 28.8415 5.59109
7089 2 18.3372 27.9904 4.35171
7088 1 18.3371 29.7327 3.17486
7092 1 19.8227 28.8384 5.56683
7103 2 21.3191 28 4.3353
7102 1 21.3157 29.7321 3.16839
7106 1 22.8086 28.8648 5.58064
7117 2 24.2937 28.0133 4.32844
7116 1 24.3018 29.7522 3.18242
7120 1 25.8007 28.8574 5.52843
7131 2 27.2665 27.8995 4.38742
7130 1 27.25 29.6993 3.092
7134 1 28.7468 28.8559 5.53494
11 1 0.517116 2.25274 8.0945
13 7 0.483374 0.509053 8.97177
9 2 2.00325 1.38447 6.90239
14 7 1.97041 3.08467 8.97177
25 1 3.50651 2.24316 8.06552
27 7 3.45744 0.509053 8.97177
23 2 4.98319 1.37598 6.86096
28 7 4.94448 3.08467 8.97177
39 1 6.48982 2.23527 8.01362
41 7 6.43152 0.509053 8.97177
37 2 7.94051 1.47649 6.77526
42 7 7.91855 3.08467 8.97177
53 1 9.40522 2.23349 7.99543
55 7 9.40559 0.509053 8.97177
51 2 10.8913 1.36084 6.82287
56 7 10.8926 3.08467 8.97177
67 1 12.3771 2.19054 8.02589
69 7 12.3797 0.509053 8.97177
65 2 13.8771 1.37011 6.83254
70 7 13.8667 3.08467 8.97177
81 1 15.3611 2.24797 8.02016
83 7 15.3537 0.509053 8.97177
79 2 16.8573 1.38209 6.84482
84 7 16.8408 3.08467 8.97177
95 1 18.3448 2.25149 8.0293
97 7 18.3278 0.509053 8.97177
93 2 19.8375 1.38614 6.84966
98 7 19.8148 3.08467 8.97177
109 1 21.3261 2.2409 8.02518
111 7 21.3019 0.509053 8.97177
107 2 22.8225 1.36097 6.82707
112 7 22.7889 3.08467 8.97177
123 1 24.2913 2.22521 8.01075
125 7 24.2759 0.509053 8.97177
121 2 25.7042 1.39879 6.85937
126 7 25.763 3.08467 8.97177
137 1 27.2585 2.21174 7.96792
139 7 27.25 0.509053 8.97177
135 2 28.7911 1.40716 6.84343
140 7 28.737 3.08467 8.97177
1413 7 0.483374 5.66028 8.97177
10 2 0.506786 3.96359 6.8927
12 1 2.00403 4.82842 8.06169
1427 7 3.45744 5.66028 8.97177
24 2 3.48562 3.95959 6.86791
26 1 4.98043 4.8231 8.03704
1441 7 6.43152 5.66028 8.97177
38 2 6.4546 3.96141 6.84349
40 1 7.95583 4.8282 8.01709
1455 7 9.40559 5.66028 8.97177
52 2 9.42185 3.96321 6.81949
54 1 10.8766 4.85645 8.00889
1469 7 12.3797 5.66028 8.97177
66 2 12.3797 3.9432 6.73038
68 1 13.9073 4.84668 8.00692
1483 7 15.3537 5.66028 8.97177
80 2 15.3732 3.95867 6.81836
82 1 16.848 4.82625 8.01184
1497 7 18.3278 5.66028 8.97177
94 2 18.346 3.96077 6.8332
96 1 19.8391 4.82785 8.01317
1511 7 21.3019 5.66028 8.97177
108 2 21.3225 3.96909 6.82237
110 1 22.8077 4.81271 8.01454
1525 7 24.2759 5.66028 8.97177
122 2 24.2937 3.94851 6.81472
124 1 25.7718 4.80624 7.9892
1539 7 27.25 5.66028 8.97177
136 2 27.2522 3.93667 6.79926
138 1 28.7408 4.8036 7.97696
1411 1 0.512367 7.41136 8.05688
1410 2 0.504612 9.12774 6.86086
1409 2 1.99311 6.54354 6.86428
1414 7 1.97041 8.23589 8.97177
1425 1 3.4883 7.40821 8.03515
1424 2 3.47929 9.12551 6.84071
1423 2 4.96753 6.54142 6.84111
1428 7 4.94448 8.23589 8.97177
1439 1 6.46236 7.4065 8.01317
1438 2 6.45007 9.12382 6.81968
1437 2 7.94 6.53805 6.81883
1442 7 7.91855 8.23589 8.97177
1452 2 9.33902 9.07008 6.73025
1453 1 9.42789 7.42639 7.9703
1451 2 10.9028 6.55667 6.79255
1456 7 10.8926 8.23589 8.97177
1467 1 12.3931 7.42804 7.96071
1466 2 12.4735 9.06381 6.72276
1465 2 13.8828 6.53953 6.79998
1470 7 13.8667 8.23589 8.97177
1481 1 15.3618 7.39396 7.99414
1480 2 15.3671 9.11078 6.79966
1479 2 16.8577 6.53428 6.81376
1484 7 16.8408 8.23589 8.97177
1495 1 18.3508 7.40035 7.99691
1494 2 18.3559 9.10079 6.79469
1493 2 19.8398 6.53662 6.82449
1498 7 19.8148 8.23589 8.97177
1508 2 21.2568 9.14044 6.85558
1509 1 21.3382 7.40548 7.98081
1507 2 22.8037 6.45858 6.8647
1512 7 22.7889 8.23589 8.97177
1523 1 24.2685 7.39894 7.96595
1522 2 24.3322 9.13191 6.838
1521 2 25.7594 6.52741 6.79695
1526 7 25.763 8.23589 8.97177
1537 1 27.2488 7.3881 7.97346
1536 2 27.2476 9.09995 6.78146
1535 2 28.7352 6.52362 6.78817
1540 7 28.737 8.23589 8.97177
2813 7 0.483374 10.8115 8.97177
2809 2 1.99003 11.7098 6.83837
1412 1 1.99867 9.99334 8.03322
2827 7 3.45744 10.8115 8.97177
2823 2 4.96476 11.7064 6.8177
1426 1 4.97519 9.98706 8.01358
2841 7 6.43152 10.8115 8.97177
2837 2 7.94006 11.6951 6.79152
1440 1 7.96786 9.96581 7.96808
2855 7 9.40559 10.8115 8.97177
2851 2 10.894 11.7887 6.71875
1454 5 10.8926 9.95297 7.91623
2869 7 12.3797 10.8115 8.97177
2865 2 13.861 11.6796 6.78255
1468 1 13.8494 9.95745 7.95562
2883 7 15.3537 10.8115 8.97177
2879 2 16.847 11.6822 6.79516
1482 1 16.8467 9.96977 7.98454
2897 7 18.3278 10.8115 8.97177
2893 2 19.8307 11.6814 6.79291
1496 1 19.8258 9.97121 7.9938
2911 7 21.3019 10.8115 8.97177
2907 2 22.7991 11.67 6.78642
1510 1 22.8013 9.9444 7.9601
2925 7 24.2759 10.8115 8.97177
2921 2 25.7643 11.6788 6.77709
1524 1 25.7721 9.96572 7.97654
2939 7 27.25 10.8115 8.97177
2935 2 28.7419 11.6841 6.77183
1538 1 28.7455 9.96744 7.96354
2811 1 0.503086 12.5786 8.02635
2810 2 0.49112 14.2876 6.83215
2812 1 1.99095 15.1494 8.00506
2814 7 1.97041 13.3871 8.97177
2825 1 3.4863 12.573 8.00928
2824 2 3.47916 14.2846 6.81437
2826 1 4.97237 15.1474 7.97122
2828 7 4.94448 13.3871 8.97177
2839 1 6.45938 12.5504 8.00085
2838 2 6.44372 14.2084 6.85291
2840 1 7.9046 15.1319 7.96569
2842 7 7.91855 13.3871 8.97177
2853 1 9.43245 12.5459 7.95318
2852 2 9.39489 14.2726 6.79152
2854 1 10.8871 15.1231 7.97492
2856 7 10.8926 13.3871 8.97177
2867 1 12.3551 12.5329 7.95095
2866 2 12.3808 14.2631 6.79007
2868 1 13.8681 15.1143 7.97757
2870 7 13.8667 13.3871 8.97177
2881 1 15.3465 12.5375 7.97806
2880 2 15.3563 14.2575 6.79032
2882 1 16.8488 15.1187 7.97561
2884 7 16.8408 13.3871 8.97177
2895 1 18.3361 12.5459 7.97972
2894 2 18.3371 14.2598 6.78849
2896 1 19.8296 15.1227 7.97045
2898 7 19.8148 13.3871 8.97177
2909 1 21.3174 12.5383 7.9738
2908 2 21.3145 14.2593 6.78314
2910 1 22.8053 15.1258 7.96303
2912 7 22.7889 13.3871 8.97177
2923 1 24.2863 12.537 7.96499
2922 2 24.2857 14.2607 6.77543
2924 1 25.7766 15.1295 7.95474
2926 7 25.763 13.3871 8.97177
2937 1 27.2599 12.5474 7.9595
2936 2 27.258 14.2652 6.76688
2938 1 28.7487 15.1298 7.94592
2940 7 28.737 13.3871 8.97177
4211 1 0.488434 17.7068 8.00036
4213 7 0.483374 15.9627 8.97177
4209 2 1.97248 16.8393 6.80118
4225 1 3.4633 17.6646 8.00311
4227 7 3.45744 15.9627 8.97177
4223 2 4.89816 16.8672 6.83527
4239 1 6.42267 17.6713 7.9576
4241 7 6.43152 15.9627 8.97177
4237 2 7.96586 16.8618 6.84754
4253 1 9.40517 17.6917 7.99121
4255 7 9.40559 15.9627 8.97177
4251 2 10.8869 16.8431 6.78558
4267 1 12.3859 17.6927 7.98172
4269 7 12.3797 15.9627 8.97177
4265 2 13.8721 16.8356 6.79325
4281 1 15.3662 17.6939 7.97811
4283 7 15.3537 15.9627 8.97177
4279 2 16.8501 16.8382 6.78734
4295 1 18.3446 17.6995 7.9685
4297 7 18.3278 15.9627 8.97177
4293 2 19.8272 16.8418 6.7796
4309 1 21.3222 17.709 7.95963
4311 7 21.3019 15.9627 8.97177
4307 2 22.8035 16.8468 6.77128
4323 1 24.2958 17.7218 7.94911
4325 7 24.2759 15.9627 8.97177
4321 2 25.7767 16.8502 6.76177
4337 1 27.2694 17.7167 7.93792
4339 7 27.25 15.9627 8.97177
4335 2 28.7472 16.8517 6.75017
5613 7 0.483374 21.114 8.97177
4210 2 0.471689 19.3926 6.80677
4212 1 1.95799 20.2835 7.99546
4214 7 1.97041 18.5383 8.97177
5627 7 3.45744 21.114 8.97177
4224 2 3.45744 19.3969 6.73038
4226 1 4.95996 20.2743 7.97158
4228 7 4.94448 18.5383 8.97177
5641 7 6.43152 21.114 8.97177
4238 2 6.42514 19.3926 6.79035
4240 1 7.90289 20.2482 7.98806
4242 7 7.91855 18.5383 8.97177
5655 7 9.40559 21.114 8.97177
4252 2 9.39253 19.3973 6.80944
4254 1 10.9005 20.2613 7.99593
4256 7 10.8926 18.5383 8.97177
5669 7 12.3797 21.114 8.97177
4266 2 12.3908 19.4082 6.80725
4268 1 13.8893 20.2718 7.98182
4270 7 13.8667 18.5383 8.97177
5683 7 15.3537 21.114 8.97177
4280 2 15.3673 19.4174 6.78978
4282 1 16.8612 20.2701 7.97788
4284 7 16.8408 18.5383 8.97177
5697 7 18.3278 21.114 8.97177
4294 2 18.341 19.4227 6.777
4296 1 19.8309 20.2839 7.95719
4298 7 19.8148 18.5383 8.97177
5711 7 21.3019 21.114 8.97177
4308 2 21.316 19.4203 6.76863
4310 1 22.8089 20.3112 7.92274
4312 7 22.7889 18.5383 8.97177
5725 7 24.2759 21.114 8.97177
4322 2 24.2946 19.4343 6.7493
4324 1 25.7915 20.3101 7.90966
4326 7 25.763 18.5383 8.97177
5739 7 27.25 21.114 8.97177
4336 2 27.2747 19.4246 6.74573
4338 1 28.7713 20.2907 7.90874
4340 7 28.737 18.5383 8.97177
5611 1 0.49056 22.8104 8.03287
5609 2 1.91339 21.9934 6.87952
5614 7 1.97041 23.6896 8.97177
5625 1 3.46786 22.7926 7.99059
5623 2 5.01053 21.9959 6.86376
5628 7 4.94448 23.6896 8.97177
5639 1 6.44203 22.8097 8.01011
5637 2 7.92438 21.9561 6.80182
5642 7 7.91855 23.6896 8.97177
5653 1 9.4177 22.8217 8.00076
5651 2 10.9042 21.9773 6.81652
5656 7 10.8926 23.6896 8.97177
5667 1 12.4078 22.834 7.99289
5665 2 13.8854 21.9824 6.79091
5670 7 13.8667 23.6896 8.97177
5681 1 15.3972 22.8476 7.95893
5679 2 16.8572 21.9282 6.83367
5684 7 16.8408 23.6896 8.97177
5695 1 18.3363 22.8545 7.94653
5693 2 19.8187 21.9988 6.76979
5698 7 19.8148 23.6896 8.97177
5709 1 21.3399 22.8354 7.92691
5707 2 22.7193 21.9466 6.68883
5712 7 22.7889 23.6896 8.97177
5723 5 24.2759 22.831 7.91623
5721 2 25.8734 21.9385 6.67344
5726 7 25.763 23.6896 8.97177
5737 1 27.2443 22.83 7.91729
5735 2 28.7023 22.0206 6.79059
5740 7 28.737 23.6896 8.97177
7013 7 0.483374 26.2652 8.97177
5610 2 0.49988 24.5284 6.83523
7009 2 1.98209 27.1081 6.83021
5612 1 1.9837 25.3815 8.01465
7027 7 3.45744 26.2652 8.97177
5624 2 3.46592 24.5189 6.82425
7023 2 4.95442 27.1092 6.83045
5626 1 4.95359 25.3807 8.01046
7041 7 6.43152 26.2652 8.97177
5638 2 6.435 24.5316 6.82117
7037 2 7.9307 27.1157 6.8312
5640 1 7.92982 25.3939 8.01206
7055 7 9.40559 26.2652 8.97177
5652 2 9.41694 24.5425 6.82225
7051 2 10.9113 27.1193 6.83022
5654 1 10.9114 25.3997 8.01013
7069 7 12.3797 26.2652 8.97177
5666 2 12.4031 24.5466 6.81294
7065 2 13.8957 27.1173 6.8183
5668 1 13.893 25.4028 8.00456
7083 7 15.3537 26.2652 8.97177
5680 2 15.3243 24.579 6.84814
7079 2 16.8662 27.1087 6.80378
5682 1 16.872 25.3801 7.96192
7097 7 18.3278 26.2652 8.97177
5694 2 18.4074 24.5845 6.83374
7093 2 19.8369 27.1176 6.79054
5696 1 19.8581 25.4057 7.9755
7111 7 21.3019 26.2652 8.97177
5708 2 21.3278 24.554 6.76207
7107 2 22.8085 27.1406 6.77314
5710 1 22.8379 25.41 7.93302
7125 7 24.2759 26.2652 8.97177
5722 2 24.2924 24.6565 6.69329
7121 2 25.783 27.1302 6.77461
5724 1 25.7549 25.3983 7.92922
7139 7 27.25 26.2652 8.97177
5736 2 27.2616 24.5451 6.74926
7135 2 28.7597 27.1279 6.76582
5738 1 28.7526 25.396 7.94196
7011 1 0.492387 27.9719 8.01507
7010 2 0.493872 29.695 6.82809
7014 7 1.97041 28.8408 8.97177
7025 1 3.46806 27.9672 8.01786
7024 2 3.46962 29.6936 6.83494
7028 7 4.94448 28.8408 8.97177
7039 1 6.44322 27.9691 8.02006
7038 2 6.44567 29.6954 6.83946
7042 7 7.91855 28.8408 8.97177
7053 1 9.42218 27.9727 8.02214
7052 2 9.42326 29.6973 6.84438
7056 7 10.8926 28.8408 8.97177
7067 1 12.405 27.973 8.01881
7066 2 12.4032 29.6931 6.84653
7070 7 13.8667 28.8408 8.97177
7081 1 15.3869 27.9636 8.00362
7080 2 15.3815 29.6944 6.8329
7084 7 16.8408 28.8408 8.97177
7095 1 18.3592 27.9642 7.99053
7094 2 18.3513 29.6964 6.82001
7098 7 19.8148 28.8408 8.97177
7108 2 21.2407 29.6457 6.73833
7109 1 21.3309 28.0002 7.95581
7112 7 22.7889 28.8408 8.97177
7123 1 24.3054 28.0066 7.9424
7122 2 24.3852 29.6487 6.72319
7126 7 25.763 28.8408 8.97177
7140 7 28.737 28.8408 8.97177
7137 1 27.2724 27.9774 7.95836
7136 2 27.2725 29.7029 6.78017
8401 7 0.483374 31.4164 2.03646
8415 7 3.45744 31.4164 2.03646
8429 7 6.43152 31.4164 2.03646
8443 7 9.40559 31.4164 2.03646
8457 7 12.3797 31.4164 2.03646
8471 7 15.3537 31.4164 2.03646
8485 7 18.3278 31.4164 2.03646
8499 7 21.3019 31.4164 2.03646
8513 7 24.2759 31.4164 2.03646
8527 7 27.25 31.4164 2.03646
8402 7 1.97041 33.992 2.03646
8416 7 4.94448 33.992 2.03646
8430 7 7.91855 33.992 2.03646
8444 7 10.8926 33.992 2.03646
8458 7 13.8667 33.992 2.03646
8472 7 16.8408 33.992 2.03646
8486 7 19.8148 33.992 2.03646
8500 7 22.7889 33.992 2.03646
8514 7 25.763 33.992 2.03646
8528 7 28.737 33.992 2.03646
9801 7 0.483374 36.5676 2.03646
9802 7 1.97041 39.1432 2.03646
9815 7 3.45744 36.5676 2.03646
9816 7 4.94448 39.1432 2.03646
9829 7 6.43152 36.5676 2.03646
9830 7 7.91855 39.1432 2.03646
9843 7 9.40559 36.5676 2.03646
9844 7 10.8926 39.1432 2.03646
9857 7 12.3797 36.5676 2.03646
9858 7 13.8667 39.1432 2.03646
9871 7 15.3537 36.5676 2.03646
9872 7 16.8408 39.1432 2.03646
9885 7 18.3278 36.5676 2.03646
9886 7 19.8148 39.1432 2.03646
9899 7 21.3019 36.5676 2.03646
9900 7 22.7889 39.1432 2.03646
9913 7 24.2759 36.5676 2.03646
9914 7 25.763 39.1432 2.03646
9927 7 27.25 36.5676 2.03646
9928 7 28.737 39.1432 2.03646
11201 7 0.483374 41.7189 2.03646
11215 7 3.45744 41.7189 2.03646
11229 7 6.43152 41.7189 2.03646
11243 7 9.40559 41.7189 2.03646
11257 7 12.3797 41.7189 2.03646
11271 7 15.3537 41.7189 2.03646
11285 7 18.3278 41.7189 2.03646
11299 7 21.3019 41.7189 2.03646
11313 7 24.2759 41.7189 2.03646
11327 7 27.25 41.7189 2.03646
11202 7 1.97041 44.2945 2.03646
11216 7 4.94448 44.2945 2.03646
11230 7 7.91855 44.2945 2.03646
11244 7 10.8926 44.2945 2.03646
11258 7 13.8667 44.2945 2.03646
11272 7 16.8408 44.2945 2.03646
11286 7 19.8148 44.2945 2.03646
11300 7 22.7889 44.2945 2.03646
11314 7 25.763 44.2945 2.03646
11328 7 28.737 44.2945 2.03646
12601 7 0.483374 46.8701 2.03646
12615 7 3.45744 46.8701 2.03646
12629 7 6.43152 46.8701 2.03646
12643 7 9.40559 46.8701 2.03646
12657 7 12.3797 46.8701 2.03646
12671 7 15.3537 46.8701 2.03646
12685 7 18.3278 46.8701 2.03646
12699 7 21.3019 46.8701 2.03646
12713 7 24.2759 46.8701 2.03646
12727 7 27.25 46.8701 2.03646
12602 7 1.97041 49.4457 2.03646
12616 7 4.94448 49.4457 2.03646
12630 7 7.91855 49.4457 2.03646
12644 7 10.8926 49.4457 2.03646
12658 7 13.8667 49.4457 2.03646
12672 7 16.8408 49.4457 2.03646
12686 7 19.8148 49.4457 2.03646
12700 7 22.7889 49.4457 2.03646
12714 7 25.763 49.4457 2.03646
12728 7 28.737 49.4457 2.03646
14001 7 0.483374 52.0213 2.03646
14015 7 3.45744 52.0213 2.03646
14029 7 6.43152 52.0213 2.03646
14043 7 9.40559 52.0213 2.03646
14057 7 12.3797 52.0213 2.03646
14071 7 15.3537 52.0213 2.03646
14085 7 18.3278 52.0213 2.03646
14099 7 21.3019 52.0213 2.03646
14113 7 24.2759 52.0213 2.03646
14127 7 27.25 52.0213 2.03646
15401 7 0.483374 57.1725 2.03646
14002 7 1.97041 54.5969 2.03646
15415 7 3.45744 57.1725 2.03646
14016 7 4.94448 54.5969 2.03646
15429 7 6.43152 57.1725 2.03646
14030 7 7.91855 54.5969 2.03646
15443 7 9.40559 57.1725 2.03646
14044 7 10.8926 54.5969 2.03646
15457 7 12.3797 57.1725 2.03646
14058 7 13.8667 54.5969 2.03646
15471 7 15.3537 57.1725 2.03646
14072 7 16.8408 54.5969 2.03646
15485 7 18.3278 57.1725 2.03646
14086 7 19.8148 54.5969 2.03646
15499 7 21.3019 57.1725 2.03646
14100 7 22.7889 54.5969 2.03646
15513 7 24.2759 57.1725 2.03646
14114 7 25.763 54.5969 2.03646
15527 7 27.25 57.1725 2.03646
14128 7 28.737 54.5969 2.03646
15402 7 1.97041 59.7481 2.03646
15416 7 4.94448 59.7481 2.03646
15430 7 7.91855 59.7481 2.03646
15444 7 10.8926 59.7481 2.03646
15458 7 13.8667 59.7481 2.03646
15472 7 16.8408 59.7481 2.03646
15486 7 19.8148 59.7481 2.03646
15500 7 22.7889 59.7481 2.03646
15514 7 25.763 59.7481 2.03646
15528 7 28.737 59.7481 2.03646
8405 2 0.505277 33.1462 4.37981
8407 1 0.49872 31.4193 5.60289
8403 1 1.99527 32.2893 3.19736
7006 2 1.98863 30.5611 4.37995
8419 2 3.47877 33.1482 4.39161
8421 1 3.47385 31.4201 5.61258
8417 1 4.96943 32.2931 3.2062
7020 2 4.96293 30.565 4.38655
8433 2 6.45605 33.1502 4.40018
8435 1 6.45019 31.4227 5.61883
8431 1 7.95331 32.3022 3.21405
7034 2 7.93947 30.5707 4.39178
8447 2 9.4381 33.1558 4.41654
8449 1 9.42711 31.4258 5.6276
8445 1 10.9388 32.3104 3.24397
7048 2 10.9098 30.5704 4.39483
8461 2 12.4012 33.0538 4.48197
8463 1 12.4022 31.4147 5.63853
8459 1 13.8608 32.3144 3.24079
7062 2 13.8887 30.5727 4.39025
8475 2 15.367 33.1589 4.41261
8477 1 15.3766 31.4274 5.61962
8473 1 16.8549 32.3168 3.2062
7076 2 16.8574 30.5796 4.37715
8489 2 18.3539 33.1595 4.40234
8491 1 18.3523 31.4277 5.60631
8487 1 19.8519 32.3157 3.22267
7090 2 19.8291 30.5799 4.36447
8503 2 21.3137 33.0523 4.45561
8505 1 21.3313 31.4112 5.62254
8501 1 22.7744 32.3239 3.21129