ITEM: TIMESTEP
0
ITEM: NUMBER OF ATOMS
81200
ITEM: BOX BOUNDS pp pp pp
5.4412076675230114e-01 2.9775537512927104e+02
5.3518390398367299e-01 2.9911252807018479e+02
0.0000000000000000e+00 4.9031656433928198e+01
ITEM: ATOMS id type x y z
1 7 0.581272 0.605869 2.03646
2 7 2.06733 3.17981 2.03646
15 7 3.55338 0.605869 2.03646
16 7 5.03944 3.17981 2.03646
29 7 6.5255 0.605869 2.03646
30 7 8.01155 3.17981 2.03646
43 7 9.49761 0.605869 2.03646
44 7 10.9837 3.17981 2.03646
45 1 10.9857 1.46187 3.05427
57 7 12.4697 0.605869 2.03646
58 7 13.9558 3.17981 2.03646
59 1 13.9699 1.4627 3.05248
71 7 15.4418 0.605869 2.03646
72 7 16.9279 3.17981 2.03646
73 1 16.9544 1.46229 3.06374
85 7 18.4139 0.605869 2.03646
86 7 19.9 3.17981 2.03646
99 7 21.3861 0.605869 2.03646
100 7 22.8721 3.17981 2.03646
113 7 24.3582 0.605869 2.03646
114 7 25.8442 3.17981 2.03646
127 7 27.3303 0.605869 2.03646
128 7 28.8163 3.17981 2.03646
1401 7 0.581272 5.75375 2.03646
1415 7 3.55338 5.75375 2.03646
1429 7 6.5255 5.75375 2.03646
1443 7 9.49761 5.75375 2.03646
46 1 9.4989 4.04176 3.05429
1457 7 12.4697 5.75375 2.03646
60 1 12.4821 4.04193 3.04043
1471 7 15.4418 5.75375 2.03646
74 1 15.4664 4.04016 3.05382
1485 7 18.4139 5.75375 2.03646
1499 7 21.3861 5.75375 2.03646
1513 7 24.3582 5.75375 2.03646
1527 7 27.3303 5.75375 2.03646
1402 7 2.06733 8.3277 2.03646
1416 7 5.03944 8.3277 2.03646
1430 7 8.01155 8.3277 2.03646
1431 1 8.01039 6.62244 3.05788
1444 7 10.9837 8.3277 2.03646
1445 1 10.992 6.62591 3.05015
1446 1 9.50295 9.20844 3.06098
1458 7 13.9558 8.3277 2.03646
1459 1 13.9751 6.61599 3.04343
1460 1 12.4827 9.19775 3.05476
1472 7 16.9279 8.3277 2.03646
1474 1 15.4777 9.18965 3.04653
1473 1 16.967 6.61768 3.05501
1486 7 19.9 8.3277 2.03646
1500 7 22.8721 8.3277 2.03646
1514 7 25.8442 8.3277 2.03646
1528 7 28.8163 8.3277 2.03646
2801 7 0.581272 10.9016 2.03646
2815 7 3.55338 10.9016 2.03646
2829 7 6.5255 10.9016 2.03646
2843 7 9.49761 10.9016 2.03646
2845 1 10.9907 11.777 3.06408
2857 7 12.4697 10.9016 2.03646
2859 1 13.9723 11.7688 3.05773
2871 7 15.4418 10.9016 2.03646
2873 1 16.9599 11.761 3.06111
2885 7 18.4139 10.9016 2.03646
2899 7 21.3861 10.9016 2.03646
2913 7 24.3582 10.9016 2.03646
2927 7 27.3303 10.9016 2.03646
2802 7 2.06733 13.4756 2.03646
2816 7 5.03944 13.4756 2.03646
2830 7 8.01155 13.4756 2.03646
2844 7 10.9837 13.4756 2.03646
2858 7 13.9558 13.4756 2.03646
2872 7 16.9279 13.4756 2.03646
2874 1 15.457 14.3458 3.05716
2886 7 19.9 13.4756 2.03646
2888 1 18.4429 14.334 3.05343
2900 7 22.8721 13.4756 2.03646
2914 7 25.8442 13.4756 2.03646
2928 7 28.8163 13.4756 2.03646
4201 7 0.581272 16.0495 2.03646
4215 7 3.55338 16.0495 2.03646
4229 7 6.5255 16.0495 2.03646
4243 7 9.49761 16.0495 2.03646
4257 7 12.4697 16.0495 2.03646
4271 7 15.4418 16.0495 2.03646
4273 1 16.9375 16.9271 3.05594
4285 7 18.4139 16.0495 2.03646
4299 7 21.3861 16.0495 2.03646
4313 7 24.3582 16.0495 2.03646
4327 7 27.3303 16.0495 2.03646
5601 7 0.581272 21.1974 2.03646
4202 7 2.06733 18.6235 2.03646
5615 7 3.55338 21.1974 2.03646
4216 7 5.03944 18.6235 2.03646
5629 7 6.5255 21.1974 2.03646
4230 7 8.01155 18.6235 2.03646
5643 7 9.49761 21.1974 2.03646
4244 7 10.9837 18.6235 2.03646
5657 7 12.4697 21.1974 2.03646
4258 7 13.9558 18.6235 2.03646
5671 7 15.4418 21.1974 2.03646
4272 7 16.9279 18.6235 2.03646
5685 7 18.4139 21.1974 2.03646
4286 7 19.9 18.6235 2.03646
5699 7 21.3861 21.1974 2.03646
4300 7 22.8721 18.6235 2.03646
5713 7 24.3582 21.1974 2.03646
4314 7 25.8442 18.6235 2.03646
5727 7 27.3303 21.1974 2.03646
4328 7 28.8163 18.6235 2.03646
5602 7 2.06733 23.7714 2.03646
5616 7 5.03944 23.7714 2.03646
5630 7 8.01155 23.7714 2.03646
5644 7 10.9837 23.7714 2.03646
5658 7 13.9558 23.7714 2.03646
5672 7 16.9279 23.7714 2.03646
5686 7 19.9 23.7714 2.03646
5700 7 22.8721 23.7714 2.03646
5714 7 25.8442 23.7714 2.03646
5728 7 28.8163 23.7714 2.03646
7001 7 0.581272 26.3453 2.03646
7015 7 3.55338 26.3453 2.03646
7029 7 6.5255 26.3453 2.03646
7043 7 9.49761 26.3453 2.03646
7057 7 12.4697 26.3453 2.03646
7071 7 15.4418 26.3453 2.03646
7085 7 18.4139 26.3453 2.03646
7099 7 21.3861 26.3453 2.03646
7113 7 24.3582 26.3453 2.03646
7127 7 27.3303 26.3453 2.03646
7002 7 2.06733 28.9192 2.03646
7016 7 5.03944 28.9192 2.03646
7030 7 8.01155 28.9192 2.03646
7044 7 10.9837 28.9192 2.03646
7058 7 13.9558 28.9192 2.03646
7072 7 16.9279 28.9192 2.03646
7086 7 19.9 28.9192 2.03646
7100 7 22.8721 28.9192 2.03646
7114 7 25.8442 28.9192 2.03646
7128 7 28.8163 28.9192 2.03646
5 6 0.581272 2.32183 4.27785
7 1 0.600836 0.611947 5.55364
3 1 2.07601 1.45 3.11031
8 1 2.12322 3.18628 5.52166
19 2 3.55 2.33928 4.29812
21 1 3.55522 0.617689 5.52346
17 1 5.02222 1.49936 3.07938
22 1 5.04912 3.18691 5.49335
31 1 8.00819 1.46337 3.06691
33 2 6.52595 2.32674 4.25565
35 1 6.55116 0.598174 5.49357
36 1 8.0234 3.20966 5.4566
47 2 9.51532 2.32537 4.24412
49 1 9.52218 0.576854 5.46064
50 1 10.9747 3.16984 5.43704
61 2 12.4799 2.31912 4.22761
63 1 12.4743 0.600917 5.46069
64 1 13.9876 3.17111 5.44553
75 2 15.4502 2.3291 4.24882
77 1 15.4549 0.610356 5.47259
78 1 16.9434 3.18509 5.46975
89 2 18.439 2.32541 4.24376
91 1 18.421 0.600503 5.46016
87 1 19.9435 1.46962 3.06752
92 1 19.9225 3.2043 5.46997
103 2 21.4114 2.33319 4.26867
105 1 21.4466 0.58327 5.47321
101 1 22.9033 1.5042 3.10129
106 1 22.8892 3.17804 5.51243
119 1 24.3156 0.609929 5.52029
117 2 24.3798 2.33767 4.30198
115 1 25.8783 1.51533 3.12861
120 1 25.8652 3.18052 5.49823
131 2 27.3311 2.41425 4.22653
133 5 27.3303 0.605869 5.50412
129 1 28.8019 1.45263 3.11401
134 1 28.7984 3.1616 5.5018
147 1 30.2551 0.641206 5.4958
1407 1 0.591674 5.80261 5.50806
4 1 0.573204 4.10123 3.10113
6 2 2.07575 4.92092 4.28618
1421 1 3.56681 5.76986 5.49956
18 1 3.54816 4.04259 3.09069
20 2 5.04231 4.90702 4.2637
32 1 6.5174 4.03802 3.06787
1435 1 6.53587 5.76303 5.48429
34 2 8.01538 4.89348 4.25295
1449 1 9.50987 5.76687 5.46165
48 2 10.9908 4.90563 4.22604
1463 1 12.4816 5.79032 5.43793
62 2 13.9754 4.90228 4.22641
1477 1 15.4613 5.75905 5.46141
76 2 16.9612 4.90402 4.2507
1491 1 18.4136 5.74296 5.46656
88 1 18.4546 4.04204 3.06495
90 2 19.9194 4.88245 4.27857
1505 1 21.4183 5.77696 5.53633
102 1 21.3962 4.03443 3.08452
104 6 22.8721 4.89577 4.27785
1519 1 24.3672 5.79632 5.53718
116 1 24.4032 4.02227 3.0881
118 2 25.8453 4.88698 4.30236
1533 1 27.3236 5.75389 5.50201
130 1 27.3204 4.04735 3.08477
132 2 28.8233 4.90363 4.28751
1405 2 0.584226 7.48697 4.30905
1404 1 0.572206 9.21845 3.1203
1403 1 2.05813 6.63215 3.10114
1408 1 2.08225 8.3531 5.52019
1419 2 3.55768 7.49343 4.27703
1418 1 3.54897 9.22342 3.09554
1417 1 5.03452 6.63186 3.07786
1422 1 5.05146 8.34802 5.49792
1433 2 6.52727 7.48601 4.25327
1432 1 6.52311 9.21638 3.07216
1436 1 8.01619 8.33984 5.46525
1447 2 9.50877 7.48441 4.23787
1450 1 10.9961 8.35384 5.47747
1461 2 12.4799 7.47003 4.23907
1464 1 13.981 8.33016 5.45079
1475 2 15.4692 7.47285 4.23243
1478 1 16.952 8.32867 5.47406
1489 2 18.4343 7.46507 4.26464
1488 1 18.4297 9.16354 3.07391
1487 1 19.8863 6.58279 3.06547
1492 1 19.9476 8.33137 5.52917
1503 6 21.3861 7.46972 4.27785
1502 1 21.4752 9.15684 3.18744
1501 1 22.8897 6.7008 3.20554
1506 5 22.8721 8.3277 5.50412
1517 2 24.4337 7.46417 4.27306
1516 1 24.3411 9.1784 3.11898
1515 1 25.8295 6.61575 3.09692
1520 1 25.7866 8.31563 5.4906
1531 2 27.3217 7.47585 4.27845
1530 1 27.3191 9.19734 3.09829
1529 1 28.8144 6.62288 3.0971
1534 1 28.8264 8.3251 5.4898
2807 1 0.595311 10.9094 5.55292
2803 1 2.10938 11.778 3.11384
1406 2 2.07922 10.0681 4.30275
2821 1 3.57526 10.9317 5.52188
2817 1 5.03579 11.8042 3.09941
1420 2 5.04684 10.075 4.27603
2835 1 6.5423 10.93 5.49421
2831 1 8.01217 11.7963 3.0804
1434 2 8.01989 10.0729 4.25335
2849 1 9.51904 10.9156 5.48918
1448 2 10.9941 10.0593 4.24793
2863 1 12.4709 10.9047 5.48088
1462 2 13.9724 10.0545 4.23498
2877 1 15.4583 10.9033 5.46805
1476 2 16.9489 10.0423 4.25061
2891 1 18.421 10.9015 5.49676
2887 1 19.9417 11.7792 3.07531
1490 6 19.9 10.0437 4.27785
2905 1 21.4367 10.8764 5.52494
2901 1 22.8802 11.7593 3.09032
1504 2 22.9042 10.1177 4.25566
2919 1 24.3418 10.8748 5.5133
2915 1 25.8432 11.7681 3.11303
1518 2 25.8321 10.047 4.28573
2933 1 27.3236 10.9313 5.50509
2929 1 28.8193 11.7879 3.11608
1532 2 28.8126 10.0602 4.28311
2805 6 0.581272 12.6176 4.27785
2804 1 0.597649 14.4 3.10931
2806 2 2.08561 15.2357 4.3121
2808 1 2.13387 13.5094 5.52593
2819 2 3.57175 12.6608 4.31115
2818 1 3.5618 14.3822 3.10554
2820 2 4.99103 15.1952 4.25043
2822 1 5.07386 13.537 5.51491
2833 2 6.53216 12.6591 4.27824
2832 1 6.52577 14.3919 3.1186
2834 2 8.07865 15.176 4.22905
2836 1 8.00533 13.5241 5.49473
2847 2 9.49811 12.6375 4.25834
2846 1 9.49985 14.3615 3.06921
2848 2 10.984 15.2131 4.26513
2850 1 10.9891 13.4991 5.46884
2861 2 12.483 12.6273 4.24367
2860 1 12.4795 14.3556 3.06528
2862 2 13.9716 15.2098 4.25686
2864 1 13.9675 13.4794 5.47125
2875 2 15.4691 12.6261 4.24799
2876 2 16.9396 15.1986 4.22664
2878 1 16.9247 13.4609 5.44579
2889 2 18.4464 12.621 4.25415
2890 2 19.9083 15.2124 4.24443
2892 1 19.9136 13.4542 5.4498
2903 2 21.3945 12.6212 4.27785
2902 1 21.4006 14.3382 3.07233
2904 2 22.8896 15.2066 4.26521
2906 1 22.893 13.4639 5.48439
2917 2 24.3541 12.6262 4.2971
2916 1 24.3762 14.3483 3.10082
2918 2 25.8585 15.2112 4.29773
2920 1 25.8412 13.4829 5.52476
2931 2 27.331 12.6211 4.31185
2930 1 27.3506 14.3552 3.12261
2932 2 28.8186 15.2169 4.32736
2934 1 28.8138 13.489 5.54719
4205 2 0.577455 17.7719 4.3516
4203 1 2.06826 16.9344 3.13573
4207 1 0.558104 16.099 5.52453
4219 2 3.55115 17.7859 4.32311
4221 1 3.59593 16.0768 5.52513
4217 1 5.04095 16.9345 3.15205
4233 6 6.5255 17.7655 4.27785
4235 5 6.5255 16.0495 5.50412
4231 1 8.03638 16.8956 3.11483
4249 1 9.46661 16.057 5.51327
4247 2 9.49167 17.7518 4.32162
4245 1 10.9635 16.9293 3.09549
4261 2 12.4694 17.7723 4.28236
4263 1 12.4746 16.0591 5.49235
4259 1 13.9524 16.935 3.07269
4275 2 15.4448 17.7848 4.25194
4277 1 15.4284 16.0429 5.45084
4287 1 19.9174 16.9267 3.06712
4289 2 18.4287 17.7775 4.25013
4291 1 18.4451 16.077 5.42558
4303 2 21.4056 17.7781 4.26831
4305 1 21.3999 16.0961 5.46
4301 1 22.8996 16.9283 3.08507
4317 2 24.3819 17.7898 4.28939
4319 1 24.3685 16.0662 5.5118
4315 1 25.8763 16.9429 3.11334
4331 2 27.351 17.7938 4.32625
4333 1 27.3375 16.0717 5.54239
4329 1 28.8387 16.9503 3.1484
5607 1 0.615797 21.1768 5.55656
4206 2 1.99704 20.2902 4.27072
4208 1 2.04983 18.6389 5.52566
5621 5 3.55338 21.1974 5.50412
4218 1 3.55767 19.499 3.16377
4220 2 5.07855 20.3083 4.30591
4222 1 5.02422 18.6415 5.56134
5635 1 6.4743 21.2057 5.58077
4232 1 6.50977 19.4891 3.15814
4234 6 8.01155 20.3394 4.27785
4236 1 8.00706 18.5721 5.58886
5649 1 9.49185 21.2109 5.57489
4246 1 9.47727 19.4468 3.14059
4248 6 10.9837 20.3394 4.27785
4250 1 10.9824 18.5956 5.54781
5663 1 12.5026 21.2166 5.54009
4260 1 12.4773 19.4743 3.09292
4262 2 13.9668 20.3526 4.28905
4264 1 13.9668 18.6357 5.49972
5677 1 15.4708 21.2361 5.50485
4274 1 15.4371 19.5071 3.08559
4276 2 16.9352 20.3563 4.28024
4278 1 16.94 18.6641 5.46693
4288 1 18.4209 19.5106 3.07988
5691 1 18.4031 21.2445 5.4989
4290 2 19.9069 20.3606 4.26687
4292 1 19.9107 18.6457 5.48224
4302 1 21.4119 19.5027 3.08075
5705 1 21.3864 21.2126 5.49309
4304 2 22.8992 20.3615 4.2823
4306 1 22.888 18.6462 5.50431
5719 1 24.3784 21.2285 5.54135
4316 1 24.399 19.5109 3.10832
4318 2 25.8665 20.3678 4.3201
4320 1 25.8601 18.6487 5.53504
5733 1 27.3744 21.2229 5.5665
4330 1 27.3385 19.5123 3.12493
4332 6 28.8163 20.3394 4.27785
4334 1 28.8429 18.6469 5.58941
5605 2 0.595537 22.8837 4.32505
5603 1 2.07679 22.0226 3.15878
5608 1 2.12284 23.7056 5.52371
5619 2 3.55006 22.9536 4.28831
5617 1 5.01892 22.023 3.17188
5622 1 5.02935 23.7254 5.55299
5633 2 6.51244 22.9028 4.33552
5631 1 7.98685 22.0778 3.12663
5636 1 8.01557 23.7631 5.55255
5647 2 9.49481 22.9226 4.32385
5645 1 10.9744 22.1041 3.11299
5650 1 11.0001 23.7729 5.53957
5661 2 12.4833 22.9275 4.30674
5659 1 13.9527 22.0634 3.09752
5664 1 14.0088 23.7719 5.51438
5675 2 15.3975 22.8892 4.23716
5673 1 16.9351 22.0916 3.11678
5678 5 16.9279 23.7714 5.50412
5687 1 19.9168 22.0771 3.08377
5689 2 18.478 22.8979 4.23472
5692 1 19.878 23.78 5.51142
5703 2 21.4014 22.9374 4.28982
5701 1 22.9047 22.0813 3.11084
5706 1 22.8921 23.7792 5.54248
5717 2 24.3821 22.9328 4.31635
5715 1 25.8883 22.0808 3.14137
5720 1 25.8456 23.7733 5.57087
5731 2 27.3442 22.9442 4.3514
5729 1 28.8253 22.1335 3.14326
5734 1 28.8109 23.7698 5.61874
7007 1 0.59449 26.3513 5.54039
5604 1 0.589493 24.6021 3.142
7003 1 2.0779 27.1982 3.14331
5606 2 2.078 25.4675 4.32439
7021 1 3.56501 26.3258 5.5505
5618 1 3.55815 24.6131 3.1356
7017 1 5.04918 27.1989 3.14454
5620 2 5.04756 25.4696 4.32851
7035 1 6.53332 26.3314 5.55479
5632 1 6.52571 24.6111 3.14009
7031 1 8.0161 27.2103 3.13903
5634 2 8.01705 25.4806 4.32243
7049 1 9.51127 26.3425 5.54719
5646 1 9.49735 24.6212 3.12922
7045 1 10.9945 27.2106 3.13314
5648 2 11.005 25.4945 4.32064
7059 1 13.9742 27.2091 3.11434
7063 1 12.4741 26.3346 5.51652
5660 1 12.4772 24.6316 3.11896
5662 2 13.9808 25.4808 4.28976
7073 1 16.9457 27.2167 3.10181
7077 1 15.5116 26.2909 5.4808
5674 1 15.4715 24.6231 3.12066
5676 2 16.9401 25.5484 4.247
7087 1 19.9161 27.2151 3.11652
7091 1 18.4139 26.3095 5.51916
5688 1 18.4083 24.6303 3.12462
5690 2 19.9074 25.4918 4.29655
5702 1 21.404 24.6472 3.11491
7105 1 21.3995 26.3506 5.5281
7101 1 22.9072 27.2349 3.12909
5704 2 22.8894 25.5023 4.30678
7119 1 24.3715 26.3699 5.53948
5716 1 24.3885 24.6521 3.13339
7115 1 25.905 27.2321 3.16938
5718 2 25.8638 25.497 4.33088
7133 1 27.3383 26.3348 5.59406
5730 1 27.3638 24.6489 3.16089
7129 1 28.7779 27.195 3.19522
5732 2 28.8141 25.489 4.38437
5744 1 30.2605 24.6388 3.17992
7005 2 0.594472 28.0406 4.34044
7004 1 0.604078 29.7762 3.14942
7008 1 2.07809 28.9067 5.56221
7019 2 3.56061 28.0463 4.33708
7018 1 3.53606 29.7622 3.14882
7022 1 5.04995 28.8874 5.58265
7033 2 6.53966 28.0528 4.3377
7032 1 6.57069 29.7677 3.14527
7036 1 8.02492 28.9168 5.56473
7047 2 9.50691 28.0658 4.32432
7046 1 9.49895 29.7945 3.14102
7050 1 10.9952 28.9245 5.54629
7061 2 12.4915 28.0739 4.31378
7060 1 12.4844 29.792 3.13985
7064 1 13.9545 28.9277 5.50315
7074 1 15.4585 29.8014 3.12363
7075 2 15.4629 28.0596 4.28976
7078 1 16.9708 28.8987 5.5041
7088 1 18.4368 29.8054 3.12562
7089 2 18.4232 28.0676 4.30672
7092 1 19.907 28.9118 5.53082
7103 2 21.4113 28.0741 4.31145
7102 1 21.4159 29.804 3.1433
7106 1 22.8902 28.9405 5.57032
7117 2 24.3856 28.0874 4.33226
7116 1 24.4013 29.8219 3.1827
7120 1 25.8812 28.9325 5.54525
7131 2 27.3481 27.9627 4.43155
7130 5 27.3303 29.7772 3.092
7134 1 28.8102 28.9005 5.60915
11 1 0.616656 2.27356 7.96793
13 7 0.581272 0.605869 8.97177
9 2 2.11822 1.45725 6.74622
14 7 2.06733 3.17981 8.97177
25 1 3.60016 2.31136 7.92424
27 7 3.55338 0.605869 8.97177
23 2 5.06338 1.46449 6.7168
28 7 5.03944 3.17981 8.97177
39 1 6.53123 2.34998 7.88566
41 7 6.5255 0.605869 8.97177
37 6 8.01155 1.46385 6.73038
42 7 8.01155 3.17981 8.97177
53 1 9.54914 2.36027 7.87404
55 7 9.49761 0.605869 8.97177
51 2 10.9909 1.45362 6.6739
56 7 10.9837 3.17981 8.97177
67 1 12.4627 2.27527 7.88979
69 7 12.4697 0.605869 8.97177
65 2 13.9646 1.46098 6.69123
70 7 13.9558 3.17981 8.97177
81 1 15.4507 2.33133 7.88485
83 7 15.4418 0.605869 8.97177
79 2 16.9345 1.47323 6.70022
84 7 16.9279 3.17981 8.97177
95 1 18.3885 2.36258 7.90979
97 7 18.4139 0.605869 8.97177
93 6 19.9 1.46385 6.73038
98 7 19.9 3.17981 8.97177
109 1 21.4294 2.34746 7.90196
111 7 21.3861 0.605869 8.97177
107 2 22.8911 1.47818 6.69817
112 7 22.8721 3.17981 8.97177
123 1 24.3227 2.33425 7.90781
125 7 24.3582 0.605869 8.97177
121 6 25.8442 1.46385 6.73038
126 7 25.8442 3.17981 8.97177
137 1 27.3724 2.32941 7.91282
139 7 27.3303 0.605869 8.97177
135 2 28.8649 1.52586 6.77172
140 7 28.8163 3.17981 8.97177
1413 7 0.581272 5.75375 8.97177
10 6 0.581272 4.03779 6.73038
12 1 2.1292 4.91778 7.92756
1427 7 3.55338 5.75375 8.97177
24 2 3.57627 4.03809 6.72023
26 1 5.06007 4.89756 7.91253
1441 7 6.5255 5.75375 8.97177
38 2 6.53659 4.05356 6.71068
40 1 8.04403 4.90859 7.89224
1455 7 9.49761 5.75375 8.97177
52 2 9.51854 4.05685 6.68609
54 1 10.9697 4.93464 7.88698
1469 7 12.4697 5.75375 8.97177
66 6 12.4697 4.03779 6.73038
68 1 13.9952 4.9272 7.88355
1483 7 15.4418 5.75375 8.97177
80 2 15.459 4.04444 6.69012
82 1 16.9318 4.89934 7.8916
1497 7 18.4139 5.75375 8.97177
94 2 18.4199 4.04386 6.6985
96 1 19.9167 4.87402 7.89404
1511 7 21.3861 5.75375 8.97177
108 2 21.4047 4.05568 6.70912
110 1 22.8792 4.88088 7.93467
1525 7 24.3582 5.75375 8.97177
122 2 24.3686 4.0463 6.72917
124 1 25.8446 4.89961 7.91693
1539 7 27.3303 5.75375 8.97177
136 2 27.3334 4.04156 6.72638
138 1 28.805 4.89684 7.91926
1411 1 0.609573 7.4891 7.94274
1410 2 0.60253 9.22309 6.75445
1409 2 2.0921 6.6351 6.73863
1414 7 2.06733 8.3277 8.97177
1425 1 3.58 7.47683 7.92389
1424 2 3.57632 9.20634 6.74224
1423 2 5.05881 6.62324 6.72358
1428 7 5.03944 8.3277 8.97177
1439 1 6.55459 7.48122 7.90146
1438 2 6.54547 9.20444 6.71752
1437 2 8.03157 6.62073 6.70325
1442 7 8.01155 8.3277 8.97177
1452 2 9.43373 9.15091 6.62635
1453 1 9.5214 7.50283 7.85898
1451 2 10.9955 6.63987 6.67687
1456 7 10.9837 8.3277 8.97177
1467 1 12.4858 7.50666 7.84901
1466 2 12.5675 9.14613 6.61802
1465 2 13.9738 6.62361 6.68545
1470 7 13.9558 8.3277 8.97177
1481 1 15.4575 7.47145 7.88738
1480 2 15.46 9.18966 6.69827
1479 2 16.9361 6.61523 6.69633
1484 7 16.9279 8.3277 8.97177
1495 1 18.4071 7.49093 7.88715
1494 2 18.4376 9.18291 6.70324
1493 6 19.9 6.61174 6.73038
1498 7 19.9 8.3277 8.97177
1508 2 21.3501 9.22708 6.78757
1509 1 21.4452 7.50009 7.89343
1507 2 22.8921 6.54769 6.7945
1512 7 22.8721 8.3277 8.97177
1523 1 24.3357 7.48194 7.90429
1522 2 24.3964 9.21635 6.77896
1521 2 25.8235 6.60805 6.72366
1526 7 25.8442 8.3277 8.97177
1537 1 27.3251 7.43396 7.92648
1536 6 27.3303 9.18568 6.73038
1535 2 28.8069 6.60915 6.72584
1540 7 28.8163 8.3277 8.97177
2813 7 0.581272 10.9016 8.97177
2809 2 2.09685 11.7816 6.75505
1412 1 2.09218 10.0727 7.94004
2827 7 3.55338 10.9016 8.97177
2823 2 5.06552 11.7857 6.73361
1426 1 5.07289 10.059 7.91915
2841 7 6.5255 10.9016 8.97177
2837 2 8.03897 11.7745 6.70302
1440 1 8.06459 10.0397 7.86991
2855 7 9.49761 10.9016 8.97177
2851 2 10.9938 11.8659 6.62829
1454 5 10.9837 10.0437 7.91623
2869 7 12.4697 10.9016 8.97177
2865 2 13.96 11.7575 6.68911
1468 1 13.945 10.0331 7.85579
2883 7 15.4418 10.9016 8.97177
2879 2 16.9455 11.7446 6.68818
1482 1 16.9421 10.0408 7.89108
2897 7 18.4139 10.9016 8.97177
2893 2 19.9104 11.7463 6.71178
1496 1 19.9021 10.0528 7.92188
2911 7 21.3861 10.9016 8.97177
2907 2 22.868 11.7339 6.71975
1510 1 22.872 10.02 7.90792
2925 7 24.3582 10.9016 8.97177
2921 2 25.8306 11.7669 6.73962
1524 1 25.8057 10.0617 7.93942
2939 7 27.3303 10.9016 8.97177
2935 2 28.8142 11.7692 6.75556
1538 1 28.8587 10.0594 7.95209
2811 1 0.604506 12.6162 7.95341
2810 6 0.581272 14.3336 6.73038
2812 1 2.12515 15.2315 7.93741
2814 7 2.06733 13.4756 8.97177
2825 1 3.58703 12.645 7.92797
2824 2 3.58251 14.3587 6.73064
2826 1 5.06365 15.2192 7.91226
2828 7 5.03944 13.4756 8.97177
2839 1 6.55994 12.6239 7.91936
2838 2 6.54296 14.2898 6.78311
2840 1 8.00488 15.2036 7.90078
2842 7 8.01155 13.4756 8.97177
2853 1 9.53395 12.6165 7.86893
2852 2 9.4967 14.3479 6.71984
2854 1 10.9937 15.1916 7.90593
2856 7 10.9837 13.4756 8.97177
2867 1 12.4576 12.6052 7.86256
2866 2 12.4835 14.3379 6.71089
2868 1 13.981 15.1834 7.89553
2870 7 13.9558 13.4756 8.97177
2881 1 15.4494 12.6141 7.88319
2880 2 15.4465 14.3243 6.68766
2882 1 16.9329 15.1698 7.87839
2884 7 16.9279 13.4756 8.97177
2895 1 18.408 12.586 7.89986
2894 6 18.4139 14.3336 6.73038
2896 1 19.9114 15.2369 7.87912
2898 7 19.9 13.4756 8.97177
2909 1 21.3836 12.5616 7.915
2908 6 21.3861 14.3336 6.73038
2910 1 22.8815 15.2236 7.92369
2912 7 22.8721 13.4756 8.97177
2923 1 24.3445 12.6069 7.92329
2922 2 24.3562 14.3398 6.73757
2924 1 25.8234 15.2011 7.94366
2926 7 25.8442 13.4756 8.97177
2937 1 27.3186 12.6191 7.94389
2936 2 27.3237 14.3447 6.76686
2938 1 28.812 15.2013 7.96226
2940 7 28.8163 13.4756 8.97177
4211 1 0.585546 17.7794 7.94196
4213 7 0.581272 16.0495 8.97177
4209 2 2.07274 16.9215 6.73961
4225 1 3.55219 17.7276 7.96621
4227 7 3.55338 16.0495 8.97177
4223 2 4.98852 16.9513 6.7984
4239 1 6.52235 17.7449 7.92528
4241 7 6.5255 16.0495 8.97177
4237 2 8.06991 16.9469 6.79778
4253 1 9.50819 17.7626 7.94027
4255 7 9.49761 16.0495 8.97177
4251 2 10.9913 16.9146 6.72792
4267 1 12.497 17.7615 7.92084
4269 7 12.4697 16.0495 8.97177
4265 2 13.9648 16.9068 6.71177
4281 1 15.4349 17.7627 7.90885
4283 7 15.4418 16.0495 8.97177
4279 6 16.9279 16.9075 6.73038
4295 1 18.4654 17.7847 7.90428
4297 7 18.4139 16.0495 8.97177
4293 2 19.9174 16.937 6.68877
4309 1 21.3819 17.7783 7.90897
4311 7 21.3861 16.0495 8.97177
4307 2 22.8795 16.9324 6.72524
4323 1 24.3507 17.7854 7.93394
4325 7 24.3582 16.0495 8.97177
4321 2 25.844 16.926 6.75842
4337 1 27.3262 17.7842 7.95741
4339 7 27.3303 16.0495 8.97177
4335 2 28.8232 16.9335 6.76552
5613 7 0.581272 21.1974 8.97177
4210 2 0.572906 19.472 6.75531
4212 1 2.0514 20.3638 7.95079
4214 7 2.06733 18.6235 8.97177
5627 7 3.55338 21.1974 8.97177
4224 6 3.55338 19.4814 6.73038
4226 1 5.05561 20.3529 7.94109
4228 7 5.03944 18.6235 8.97177
5641 7 6.5255 21.1974 8.97177
4238 2 6.52316 19.4748 6.77795
4240 1 8.00626 20.3244 7.9572
4242 7 8.01155 18.6235 8.97177
5655 7 9.49761 21.1974 8.97177
4252 2 9.48548 19.4654 6.76307
4254 1 10.999 20.3351 7.94228
4256 7 10.9837 18.6235 8.97177
5669 7 12.4697 21.1974 8.97177
4266 2 12.4878 19.4807 6.7482
4268 1 13.9848 20.3337 7.91974
4270 7 13.9558 18.6235 8.97177
5683 7 15.4418 21.1974 8.97177
4280 2 15.4547 19.4919 6.71591
4282 1 16.9419 20.3356 7.91234
4284 7 16.9279 18.6235 8.97177
5697 7 18.4139 21.1974 8.97177
4294 2 18.4285 19.5022 6.70857
4296 1 19.9003 20.3478 7.90918
4298 7 19.9 18.6235 8.97177
5711 7 21.3861 21.1974 8.97177
4308 2 21.3927 19.4961 6.7265
4310 1 22.8707 20.3808 7.90112
4312 7 22.8721 18.6235 8.97177
5725 7 24.3582 21.1974 8.97177
4322 2 24.3653 19.509 6.74194
4324 1 25.8466 20.3806 7.92456
4326 7 25.8442 18.6235 8.97177
5739 7 27.3303 21.1974 8.97177
4336 2 27.3387 19.4986 6.78578
4338 1 28.8236 20.3637 7.97013
4340 7 28.8163 18.6235 8.97177
5611 1 0.594275 22.8451 7.9895
5609 2 2.02063 22.0607 6.82015
5614 7 2.06733 23.7714 8.97177
5625 1 3.56431 22.8702 7.9365
5623 2 5.11414 22.0707 6.81832
5628 7 5.03944 23.7714 8.97177
5639 1 6.5392 22.8934 7.9722
5637 2 8.02583 22.0402 6.76982
5642 7 8.01155 23.7714 8.97177
5653 1 9.51862 22.8994 7.95077
5651 2 10.9901 22.05 6.75758
5656 7 10.9837 23.7714 8.97177
5667 1 12.5076 22.9158 7.93462
5665 2 13.9743 22.0563 6.72967
5670 7 13.9558 23.7714 8.97177
5681 1 15.4764 22.9236 7.89929
5679 2 16.9393 22 6.77662
5684 7 16.9279 23.7714 8.97177
5695 1 18.4091 22.9245 7.89808
5693 2 19.8964 22.0716 6.72819
5698 7 19.9 23.7714 8.97177
5709 1 21.4057 22.9063 7.90035
5707 2 22.7937 22.0219 6.67228
5712 7 22.8721 23.7714 8.97177
5723 5 24.3582 22.9134 7.91623
5721 2 25.9475 22.0102 6.68995
5726 7 25.8442 23.7714 8.97177
5737 1 27.2901 22.9071 7.96324
5735 2 28.7532 22.1094 6.86586
5740 7 28.8163 23.7714 8.97177
7013 7 0.581272 26.3453 8.97177
5610 6 0.581272 24.6293 6.73038
7009 2 2.08197 27.1902 6.77999
5612 1 2.1092 25.4736 7.96661
7027 7 3.55338 26.3453 8.97177
5624 2 3.57016 24.5985 6.7684
7023 2 5.04852 27.1968 6.77698
5626 1 5.04168 25.4641 7.96415
7041 7 6.5255 26.3453 8.97177
5638 2 6.53079 24.6138 6.77867
7037 2 8.02608 27.1946 6.78315
5640 1 8.02722 25.4759 7.9657
7055 7 9.49761 26.3453 8.97177
5652 2 9.51362 24.6233 6.77275
7051 2 10.9955 27.2015 6.76641
5654 1 11.0114 25.481 7.95205
7069 7 12.4697 26.3453 8.97177
5666 2 12.4954 24.6219 6.74774
7065 6 13.9558 27.2033 6.73038
5668 1 13.9943 25.4575 7.94329
7083 7 15.4418 26.3453 8.97177
5680 2 15.4192 24.6439 6.77628
7079 2 16.9597 27.1712 6.72647
5682 1 16.9449 25.4567 7.90221
7097 7 18.4139 26.3453 8.97177
5694 2 18.4854 24.6568 6.78762
7093 2 19.9117 27.191 6.75553
5696 1 19.9247 25.4785 7.9401
7111 7 21.3861 26.3453 8.97177
5708 2 21.4013 24.6287 6.73849
7107 2 22.8796 27.2181 6.76516
5710 1 22.8978 25.4867 7.92565
7125 7 24.3582 26.3453 8.97177
5722 2 24.3613 24.7352 6.7023
7121 2 25.8505 27.2106 6.79875
5724 1 25.8111 25.4801 7.9561
7139 7 27.3303 26.3453 8.97177
5736 2 27.3325 24.6217 6.79206
7135 2 28.8337 27.2121 6.81313
5738 1 28.8105 25.4868 8.00232
7011 1 0.595501 28.0503 7.97563
7010 2 0.588236 29.7637 6.78536
7014 7 2.06733 28.9192 8.97177
7025 1 3.55866 28.04 7.97646
7024 2 3.56484 29.7585 6.79433
7028 7 5.03944 28.9192 8.97177
7039 1 6.53759 28.0472 7.973
7038 2 6.54045 29.7703 6.79959
7042 7 8.01155 28.9192 8.97177
7053 1 9.52192 28.0544 7.97038
7052 2 9.51287 29.7757 6.79008
7056 7 10.9837 28.9192 8.97177
7067 1 12.4509 28.0829 7.96361
7066 2 12.4739 29.7948 6.76
7070 7 13.9558 28.9192 8.97177
7081 1 15.4908 28.0122 7.91558
7080 6 15.4418 29.7772 6.73038
7084 7 16.9279 28.9192 8.97177
7095 1 18.421 28.0357 7.94169
7094 2 18.4346 29.766 6.76776
7098 7 19.9 28.9192 8.97177
7108 2 21.3141 29.7202 6.71481
7109 1 21.3931 28.0755 7.93349
7112 7 22.8721 28.9192 8.97177
7123 1 24.366 28.0896 7.94852
7122 2 24.458 29.7282 6.72515
7126 7 25.8442 28.9192 8.97177
7140 7 28.8163 28.9192 8.97177
7136 2 27.3515 29.7733 6.79962
7137 1 27.3369 28.0668 7.98704
8401 7 0.581272 31.4932 2.03646
8415 7 3.55338 31.4932 2.03646
8429 7 6.5255 31.4932 2.03646
8443 7 9.49761 31.4932 2.03646
8457 7 12.4697 31.4932 2.03646
8471 7 15.4418 31.4932 2.03646
8485 7 18.4139 31.4932 2.03646
8499 7 21.3861 31.4932 2.03646
8513 7 24.3582 31.4932 2.03646
8527 7 27.3303 31.4932 2.03646
8402 7 2.06733 34.0671 2.03646
8416 7 5.03944 34.0671 2.03646
8430 7 8.01155 34.0671 2.03646
8444 7 10.9837 34.0671 2.03646
8458 7 13.9558 34.0671 2.03646
8472 7 16.9279 34.0671 2.03646
8486 7 19.9 34.0671 2.03646
8500 7 22.8721 34.0671 2.03646
8514 7 25.8442 34.0671 2.03646
8528 7 28.8163 34.0671 2.03646
9801 7 0.581272 36.6411 2.03646
9802 7 2.06733 39.215 2.03646
9815 7 3.55338 36.6411 2.03646
9816 7 5.03944 39.215 2.03646
9829 7 6.5255 36.6411 2.03646
9830 7 8.01155 39.215 2.03646
9843 7 9.49761 36.6411 2.03646
9844 7 10.9837 39.215 2.03646
9857 7 12.4697 36.6411 2.03646
9858 7 13.9558 39.215 2.03646
9871 7 15.4418 36.6411 2.03646
9872 7 16.9279 39.215 2.03646
9885 7 18.4139 36.6411 2.03646
9886 7 19.9 39.215 2.03646
9899 7 21.3861 36.6411 2.03646
9900 7 22.8721 39.215 2.03646
9913 7 24.3582 36.6411 2.03646
9914 7 25.8442 39.215 2.03646
9927 7 27.3303 36.6411 2.03646
9928 7 28.8163 39.215 2.03646
11201 7 0.581272 41.789 2.03646
11215 7 3.55338 41.789 2.03646
11229 7 6.5255 41.789 2.03646
11243 7 9.49761 41.789 2.03646
11257 7 12.4697 41.789 2.03646
11271 7 15.4418 41.789 2.03646
11285 7 18.4139 41.789 2.03646
11299 7 21.3861 41.789 2.03646
11313 7 24.3582 41.789 2.03646
11327 7 27.3303 41.789 2.03646
11202 7 2.06733 44.3629 2.03646
11216 7 5.03944 44.3629 2.03646
11230 7 8.01155 44.3629 2.03646
11244 7 10.9837 44.3629 2.03646
11258 7 13.9558 44.3629 2.03646
11272 7 16.9279 44.3629 2.03646
11286 7 19.9 44.3629 2.03646
11300 7 22.8721 44.3629 2.03646
11314 7 25.8442 44.3629 2.03646
11328 7 28.8163 44.3629 2.03646
12601 7 0.581272 46.9368 2.03646
12615 7 3.55338 46.9368 2.03646
12629 7 6.5255 46.9368 2.03646
12643 7 9.49761 46.9368 2.03646
12657 7 12.4697 46.9368 2.03646
12671 7 15.4418 46.9368 2.03646
12685 7 18.4139 46.9368 2.03646
12699 7 21.3861 46.9368 2.03646
12713 7 24.3582 46.9368 2.03646
12727 7 27.3303 46.9368 2.03646
12602 7 2.06733 49.5108 2.03646
12616 7 5.03944 49.5108 2.03646
12630 7 8.01155 49.5108 2.03646
12644 7 10.9837 49.5108 2.03646
12658 7 13.9558 49.5108 2.03646
12672 7 16.9279 49.5108 2.03646
12686 7 19.9 49.5108 2.03646
12700 7 22.8721 49.5108 2.03646
12714 7 25.8442 49.5108 2.03646
12728 7 28.8163 49.5108 2.03646
14001 7 0.581272 52.0847 2.03646
14015 7 3.55338 52.0847 2.03646
14029 7 6.5255 52.0847 2.03646
14043 7 9.49761 52.0847 2.03646
14057 7 12.4697 52.0847 2.03646
14071 7 15.4418 52.0847 2.03646
14085 7 18.4139 52.0847 2.03646
14099 7 21.3861 52.0847 2.03646
14113 7 24.3582 52.0847 2.03646
14127 7 27.3303 52.0847 2.03646
15401 7 0.581272 57.2326 2.03646
14002 7 2.06733 54.6587 2.03646
15415 7 3.55338 57.2326 2.03646
14016 7 5.03944 54.6587 2.03646
15429 7 6.5255 57.2326 2.03646
14030 7 8.01155 54.6587 2.03646
15443 7 9.49761 57.2326 2.03646
14044 7 10.9837 54.6587 2.03646
15457 7 12.4697 57.2326 2.03646
14058 7 13.9558 54.6587 2.03646
15471 7 15.4418 57.2326 2.03646
14072 7 16.9279 54.6587 2.03646
15485 7 18.4139 57.2326 2.03646
14086 7 19.9 54.6587 2.03646
15499 7 21.3861 57.2326 2.03646
14100 7 22.8721 54.6587 2.03646
15513 7 24.3582 57.2326 2.03646
14114 7 25.8442 54.6587 2.03646
15527 7 27.3303 57.2326 2.03646
14128 7 28.8163 54.6587 2.03646
15402 7 2.06733 59.8065 2.03646
15416 7 5.03944 59.8065 2.03646
15430 7 8.01155 59.8065 2.03646
15444 7 10.9837 59.8065 2.03646
15458 7 13.9558 59.8065 2.03646
15472 7 16.9279 59.8065 2.03646
15486 7 19.9 59.8065 2.03646
15500 7 22.8721 59.8065 2.03646
15514 7 25.8442 59.8065 2.03646
15528 7 28.8163 59.8065 2.03646
8405 2 0.596368 33.2253 4.3362
8407 1 0.575195 31.4841 5.54744
8403 1 2.08797 32.3658 3.15471
7006 2 2.07535 30.6334 4.33784
8419 2 3.5703 33.2344 4.34802
8421 1 3.56799 31.4957 5.56947
8417 1 5.05851 32.411 3.1573
7020 6 5.03944 30.6352 4.27785
8433 2 6.54733 33.2354 4.35533
8435 1 6.55864 31.5121 5.58936
8431 1 8.0381 32.3774 3.15993
7034 2 8.03087 30.6456 4.34503
8447 2 9.5091 33.2276 4.36071
8449 1 9.50841 31.5004 5.57538
8445 1 10.9633 32.3406 3.1627
7048 2 10.9846 30.6388 4.33465
8461 6 12.4697 33.2091 4.27785
8463 1 12.4827 31.4777 5.57687
8459 1 14.0068 32.3404 3.16869
7062 2 13.9784 30.6282 4.33233
8475 2 15.4682 33.2124 4.37053
8477 1 15.4636 31.5175 5.54989
8473 1 16.9445 32.3844 3.15484
7076 2 16.9523 30.6512 4.31518
8489 2 18.4434 33.2284 4.35761
8491 1 18.4383 31.4984 5.55847
8487 1 19.9485 32.3873 3.18548
7090 2 19.9212 30.6524 4.32723
8503 2 21.4023 33.1235 4.42686
8505 1 21.4139 31.4843 5.59702
8501 1 22.8708 32.3923 3.1913
7104 2 22.8917 30.6506 4.34532