ITEM: TIMESTEP
100000
ITEM: NUMBER OF ATOMS
81200
ITEM: BOX BOUNDS pp pp pp
-3.4886547553232700e-01 2.9864836137155987e+02
-3.7509646785128037e-01 3.0002280844201761e+02
0.0000000000000000e+00 4.9031656433928198e+01
ITEM: ATOMS id type x y z
1 3 -0.328088 -0.203294 2.05826
2 3 1.18315 2.30939 2.06567
3 1 1.19053 0.591896 3.00587
15 7 2.67848 -0.30398 2.03646
16 3 4.17381 2.34508 2.03934
17 1 4.17888 0.696288 3.03154
29 7 5.66845 -0.30398 2.03646
30 7 7.1807 2.30085 2.05869
31 1 7.20701 0.594567 3.02658
43 3 8.67849 -0.251153 2.04259
44 3 10.1215 2.30573 2.04665
45 1 10.1339 0.611911 3.03109
57 7 11.6484 -0.30398 2.03646
58 7 13.1434 2.28566 2.03646
59 1 13.2128 0.535903 3.02778
71 3 14.6726 -0.290726 2.0297
72 7 16.1334 2.28566 2.03646
73 1 16.1021 0.563177 3.04386
85 7 17.6283 -0.30398 2.03646
86 3 19.1124 2.37147 2.01912
87 1 19.1356 0.686666 3.01134
99 7 20.6183 -0.30398 2.03646
100 7 22.1133 2.28566 2.03646
101 5 22.1905 0.607597 3.02306
113 7 23.6296 -0.0560963 1.91955
114 3 25.0985 2.34493 1.9774
115 1 25.0804 0.686387 2.97354
127 7 26.5983 -0.30398 2.03646
128 3 28.0932 2.28566 2.03646
129 1 28.1213 0.568905 3.01778
1401 7 -0.311491 4.87529 2.03646
4 1 -0.240741 3.22919 3.02884
1415 7 2.67848 4.87529 2.03646
18 1 2.67742 3.14392 3.02523
1429 3 5.66733 4.90253 2.06555
32 1 5.68145 3.17097 3.00385
1443 3 8.65843 4.87529 2.03646
46 1 8.65478 3.1395 3.04383
60 1 11.5817 3.14059 3.04109
1457 7 11.6484 4.87529 2.03646
1471 7 14.6384 4.87529 2.03646
1485 3 17.6428 4.92233 2.04193
102 1 20.5558 3.20555 3.00401
88 1 17.6546 3.21844 3.01919
1499 3 20.6173 4.94806 2.10509
1513 3 23.6083 4.87529 2.03646
116 1 23.6941 3.1706 2.99976
130 1 26.544 3.17109 2.99465
1527 7 26.5983 4.87529 2.03646
1402 7 1.1835 7.46493 2.03646
1416 7 4.17347 7.46493 2.03646
1430 7 7.16344 7.46493 2.03646
1444 7 10.1534 7.46493 2.03646
1458 3 13.1606 7.47208 2.07004
1472 3 16.1274 7.44774 2.05131
1474 1 14.6537 8.29379 3.03842
1473 1 16.1731 5.7571 3.04157
1488 1 17.5665 8.2909 3.03759
1486 7 19.1346 7.53092 2.13954
1487 1 19.0893 5.77379 3.02796
1500 7 22.1133 7.46493 2.03646
1502 1 20.6205 8.43531 3.0456
1514 3 25.0882 7.55331 2.0619
1515 1 25.0748 5.85669 3.02623
1528 3 28.0869 7.50043 2.04764
1530 1 26.6036 8.33128 3.03292
1529 1 28.116 5.79807 3.01765
2801 3 -0.330882 10.1289 2.11854
2803 1 1.22633 10.8779 3.04358
2815 3 2.6819 10.0599 2.06414
2829 7 5.66845 10.0546 2.03646
2831 1 7.18993 10.992 3.06001
2843 3 8.6549 10.1214 2.0885
2857 7 11.6484 10.0546 2.03646
2871 7 14.6384 10.0546 2.03646
2885 7 17.6283 10.0546 2.03646
2887 1 19.1731 11.069 3.02049
2899 3 20.6152 10.1184 2.08809
2913 3 23.598 10.0828 2.09892
2927 7 26.5983 10.0546 2.03646
2802 7 1.1835 12.6442 2.03646
2816 7 4.17347 12.6442 2.03646
2830 3 7.16936 12.7072 2.1065
2844 7 10.1534 12.6442 2.03646
2858 7 13.1434 12.6442 2.03646
2872 7 16.1334 12.6442 2.03646
2886 3 19.1666 12.7655 2.08358
2900 7 22.1133 12.6442 2.03646
2914 7 25.1033 12.6442 2.03646
2928 3 28.0932 12.6442 2.03646
4201 7 -0.311491 15.2338 2.03646
4215 7 2.67848 15.2338 2.03646
4217 1 4.17537 16.0902 3.0596
4229 3 5.69416 15.2682 2.13534
4243 7 8.65843 15.2338 2.03646
4257 7 11.6484 15.2338 2.03646
4271 3 14.6776 15.3083 2.13068
4285 3 17.6626 15.3053 2.13895
4299 7 20.6183 15.2338 2.03646
4313 7 23.6083 15.2338 2.03646
4327 7 26.5983 15.2338 2.03646
5601 7 -0.311491 20.4131 2.03646
4202 7 1.1835 17.8235 2.03646
5615 3 2.71725 20.3874 2.08931
4216 3 4.18772 17.8 2.09904
4218 1 2.72264 18.683 3.06
5629 7 5.66845 20.4131 2.03646
4230 7 7.16344 17.8235 2.03646
5643 3 8.72222 20.4118 2.2016
4244 3 10.1952 17.8669 2.14739
4246 1 8.66921 18.6459 3.04677
5657 3 11.6523 20.4131 2.18125
4258 3 13.2208 17.8304 2.12291
5671 7 14.6384 20.4131 2.03646
4272 7 16.1483 17.8704 2.16876
5685 3 17.6167 20.4716 2.19863
4286 7 19.1233 17.8235 2.03646
5699 3 20.6205 20.4536 2.19977
4300 7 22.1133 17.8235 2.03646
5713 3 23.5895 20.4421 2.19486
4314 7 25.1033 17.8235 2.03646
5727 7 26.5983 20.4131 2.03646
4328 7 28.0932 17.8235 2.03646
5602 7 1.1835 23.0028 2.03646
5616 7 4.17347 23.0028 2.03646
5630 3 7.24366 23.0679 2.10782
5631 1 7.24446 21.3799 3.06023
5644 7 10.1534 23.0028 2.03646
5658 7 13.1434 23.0028 2.03646
5672 7 16.1334 23.0028 2.03646
5686 3 19.1093 23.0462 2.21516
5700 7 22.1133 23.0028 2.03646
5714 7 25.1033 23.0028 2.03646
5728 7 28.0932 23.0028 2.03646
7001 3 -0.273961 25.6066 2.07935
7015 3 2.71507 25.6002 2.09843
7029 3 5.70933 25.6098 2.12359
7043 7 8.65843 25.5924 2.03646
7057 7 11.6484 25.5924 2.03646
7071 3 14.6888 25.5845 2.18998
7085 3 17.6594 25.6163 2.21667
7099 7 20.6183 25.5924 2.03646
7113 3 23.6289 25.6362 2.21833
7127 3 26.5635 25.601 2.18433
7002 3 1.20465 28.1298 2.06978
7004 1 -0.259966 28.9893 3.05726
7016 7 4.19175 28.1565 2.12816
7018 1 2.65558 28.9652 3.04747
7030 3 7.16551 28.1741 2.11371
7044 3 10.1559 28.2193 2.15193
7058 7 13.1434 28.182 2.03646
7072 7 16.1763 28.1866 2.19461
7086 7 19.1091 28.2016 2.20793
7100 7 22.1133 28.182 2.03646
7114 3 25.0511 28.1663 2.17738
7128 7 28.2571 28.07 2.13027
5 2 -0.311491 1.42244 4.27785
7 1 -0.310151 -0.270359 5.495
8 1 1.23782 2.31398 5.49353
19 2 2.68228 1.46275 4.27952
21 1 2.65882 -0.273454 5.52122
22 1 4.17376 2.31404 5.50404
33 2 5.67139 1.45523 4.26386
35 1 5.66306 -0.291388 5.46686
36 1 7.16001 2.33402 5.50372
47 2 8.67302 1.45336 4.28258
49 1 8.68838 -0.302171 5.47136
50 1 10.1346 2.30187 5.49715
61 2 11.6548 1.43762 4.24286
63 1 11.6572 -0.283699 5.46091
64 1 13.1756 2.28748 5.44505
75 2 14.6411 1.44551 4.26057
77 1 14.6544 -0.28709 5.48227
78 1 16.1501 2.30196 5.48948
89 2 17.6358 1.45774 4.23685
91 1 17.6341 -0.300953 5.44608
92 1 19.1395 2.3402 5.45844
103 6 20.633 1.47073 4.22678
105 1 20.6586 -0.306988 5.42799
106 1 22.1236 2.297 5.47688
119 1 23.5635 -0.285224 5.46509
117 2 23.6243 1.47681 4.23439
120 1 25.1196 2.313 5.44215
131 2 26.5861 1.54742 4.13609
133 5 26.5983 -0.30398 5.50412
134 1 28.0662 2.28929 5.42641
147 1 29.5325 -0.258165 5.42357
1407 1 -0.328428 4.93606 5.47681
6 6 1.1923 4.06686 4.26602
1421 1 2.67271 4.90754 5.50818
20 2 4.17057 4.04331 4.27652
1435 1 5.65937 4.89442 5.51289
34 2 7.16014 4.029 4.28841
1449 1 8.649 4.90195 5.49133
48 2 10.1432 4.04181 4.27105
1463 1 11.6511 4.9179 5.49246
62 2 13.1389 4.03273 4.25833
1477 1 14.635 4.88896 5.50223
74 1 14.6235 3.18065 3.09268
76 2 16.1402 4.03678 4.2819
1491 1 17.6098 4.88342 5.49967
90 2 19.1218 4.03547 4.28441
1505 1 20.6525 4.90552 5.54558
104 6 22.1133 4.01208 4.27785
1519 1 23.6132 4.93208 5.48361
118 2 25.1016 4.03541 4.2422
1533 1 26.5812 4.89376 5.44313
132 2 28.0923 4.05177 4.23147
1547 1 29.545 4.8764 5.45543
1405 6 -0.333173 6.62725 4.28013
1403 5 1.17076 5.79587 3.10226
1408 1 1.16958 7.49008 5.49464
1419 6 2.67247 6.63181 4.27893
1418 1 2.67997 8.39331 3.07685
1417 1 4.21849 5.74319 3.06793
1422 1 4.16058 7.48546 5.52073
1433 2 5.66182 6.62904 4.29038
1432 1 5.66381 8.3643 3.12018
1431 1 7.11098 5.74966 3.06919
1436 1 7.15331 7.49184 5.51656
1447 2 8.64719 6.63841 4.27551
1446 1 8.64919 8.4331 3.06941
1445 1 10.1361 5.78151 3.10805
1450 1 10.1457 7.49448 5.49919
1461 2 11.6477 6.61627 4.29847
1460 1 11.722 8.32739 3.07483
1459 1 13.1307 5.80158 3.07613
1464 1 13.1409 7.48053 5.54071
1475 2 14.6361 6.61167 4.28808
1478 1 16.1284 7.48158 5.52711
1489 2 17.6153 6.6216 4.30023
1492 1 19.1298 7.49235 5.6025
1503 6 20.6183 6.60172 4.27785
1501 1 22.075 5.7869 3.09193
1506 1 22.1133 7.46493 5.50412
1516 1 23.6268 8.38323 3.0762
1517 2 23.6653 6.61875 4.21723
1520 1 25.0192 7.47331 5.47122
1531 2 26.5802 6.63728 4.25214
1534 1 28.0977 7.4845 5.47684
2807 1 -0.329487 10.0506 5.55339
1406 2 1.17394 9.21035 4.29443
2821 1 2.66601 10.0773 5.54713
2817 1 4.10651 10.9161 3.08883
1420 2 4.16244 9.21732 4.3019
2835 1 5.65676 10.0871 5.52096
1434 2 7.15313 9.23049 4.29579
2849 1 8.65147 10.0858 5.5299
2845 1 10.1221 10.9219 3.09409
1448 2 10.1542 9.22209 4.28943
2863 1 11.6449 10.0728 5.53679
2859 1 13.1489 10.9675 3.12885
1462 2 13.1527 9.21453 4.29489
2877 1 14.6445 10.065 5.50852
2873 1 16.1265 10.9626 3.12233
1476 2 16.1277 9.21237 4.28897
2891 1 17.6187 10.0682 5.52655
1490 6 19.1233 9.19136 4.27785
2901 1 22.1134 10.9182 3.07247
2905 1 20.6475 10.0479 5.56034
1504 2 22.111 9.28899 4.24511
2919 1 23.5649 10.0439 5.56927
2915 1 25.0244 10.9427 3.1167
1518 2 25.0762 9.22729 4.30194
2933 1 26.5716 10.1002 5.52223
2929 1 28.0657 10.9928 3.14063
1532 2 28.0742 9.23901 4.28167
2805 2 -0.311491 11.781 4.27785
2806 2 1.17545 14.3918 4.30437
2808 1 1.21815 12.6657 5.53645
2819 2 2.66459 11.8079 4.32082
2818 1 2.65207 13.5218 3.11911
2820 2 4.08273 14.3397 4.23447
2822 1 4.18089 12.6913 5.5261
2833 2 5.65572 11.8159 4.29998
2832 1 5.70557 13.5619 3.09807
2834 2 7.23604 14.3448 4.27408
2836 1 7.13802 12.6927 5.53932
2847 2 8.65623 11.8136 4.31492
2846 1 8.63653 13.5194 3.10376
2848 2 10.1571 14.3995 4.3362
2850 1 10.1498 12.6636 5.55059
2861 2 11.65 11.8086 4.31696
2860 1 11.643 13.5403 3.15987
2862 2 13.1585 14.4089 4.34912
2864 1 13.151 12.6632 5.5331
2875 2 14.6508 11.8179 4.3063
2874 1 14.6429 13.6182 3.10879
2876 2 16.14 14.4032 4.33242
2878 1 16.1132 12.6451 5.49486
2888 1 17.6876 13.5848 3.08078
2889 2 17.6413 11.8164 4.29752
2890 2 19.1253 14.4264 4.35687
2892 1 19.1203 12.6354 5.50849
2903 2 20.6132 11.8288 4.32224
2902 1 20.6016 13.5612 3.13686
2904 2 22.1198 14.4205 4.36449
2906 1 22.1262 12.6476 5.54617
2917 2 23.5812 11.8191 4.34589
2916 1 23.6026 13.5822 3.18075
2918 2 25.0954 14.4173 4.37168
2920 1 25.0883 12.6609 5.55915
2931 2 26.5726 11.807 4.33878
2930 1 26.5657 13.557 3.17489
2932 2 28.0636 14.418 4.36534
2934 1 28.0757 12.6685 5.55691
2944 1 29.5132 13.6047 3.10678
4205 2 -0.327541 16.9554 4.30364
4203 1 1.1789 16.0831 3.12566
4219 2 2.66946 16.9472 4.30061
4221 1 2.69512 15.2392 5.50719
4233 2 5.66845 16.9603 4.27785
4235 1 5.66845 15.2338 5.50412
4231 1 7.15143 16.0508 3.15928
4247 2 8.65836 16.959 4.35617
4249 1 8.63224 15.2455 5.56437
4245 1 10.1571 16.1809 3.13442
4259 1 13.2065 16.1431 3.12149
4261 2 11.6639 16.9739 4.36162
4263 1 11.6525 15.2562 5.57374
4273 1 16.1672 16.1405 3.1132
4275 2 14.6508 16.9915 4.3788
4277 1 14.6191 15.2423 5.5822
4289 2 17.6443 16.9922 4.39322
4291 1 17.6585 15.2748 5.57526
4287 1 19.0938 16.1322 3.17652
4303 2 20.6226 16.9924 4.39528
4305 1 20.6204 15.299 5.58476
4301 1 22.1203 16.1504 3.20826
4317 2 23.6115 17.0007 4.39441
4319 1 23.6143 15.2667 5.60615
4315 1 25.1011 16.1615 3.20624
4331 2 26.5892 17.0022 4.40201
4333 1 26.5911 15.2756 5.61025
4329 1 28.1071 16.1321 3.17066
5607 1 -0.313902 20.3981 5.50421
4206 2 1.17964 19.5315 4.27715
4208 1 1.1419 17.8049 5.49726
4232 1 5.59117 18.666 3.08616
5621 1 2.68827 20.426 5.50994
4220 2 4.17246 19.5438 4.31728
4222 1 4.1775 17.7963 5.56443
5635 1 5.66828 20.4165 5.55005
4234 6 7.16344 19.5499 4.27785
4236 1 7.18258 17.7814 5.63985
5649 1 8.66584 20.446 5.62714
4248 2 10.1534 19.5499 4.27785
4250 1 10.1499 17.8066 5.60618
4260 1 11.7372 18.6631 3.07582
5663 1 11.6783 20.4418 5.6516
4262 2 13.1652 19.571 4.3906
4264 1 13.1447 17.8429 5.62112
4274 1 14.6579 18.6789 3.15257
4288 1 17.585 18.7647 3.16477
5677 1 14.663 20.4674 5.60298
4276 2 16.1405 19.5889 4.41289
4278 1 16.1445 17.8862 5.59828
5691 1 17.6132 20.4743 5.66236
4290 2 19.1204 19.5875 4.42083
4292 1 19.1273 17.8533 5.62692
5705 1 20.614 20.4498 5.66425
4302 1 20.6144 18.7781 3.1997
4304 2 22.1116 19.5825 4.41741
4306 1 22.1142 17.8515 5.61004
5719 1 23.6037 20.4401 5.67243
4316 1 23.6202 18.7677 3.19336
4318 2 25.0877 19.5867 4.42749
4320 1 25.0999 17.8508 5.64013
5733 1 26.5896 20.4633 5.65696
4330 1 26.5641 18.7267 3.22697
4332 2 28.0932 19.5499 4.27785
4334 1 28.1049 17.8635 5.62386
5605 2 -0.297281 22.1233 4.25829
5603 1 1.25087 21.224 3.07016
5608 1 1.22145 22.9688 5.47236
5619 2 2.68929 22.1221 4.30753
5617 1 4.14501 21.2471 3.10295
5622 1 4.1972 22.9988 5.54454
5633 2 5.69392 22.1484 4.32058
5636 1 7.18245 23.016 5.597
5645 1 10.1921 21.3281 3.11082
5647 2 8.6882 22.1807 4.36612
5650 1 10.1722 23.023 5.61866
5661 2 11.6686 22.1713 4.39589
5659 1 13.1003 21.2739 3.17043
5664 1 13.1953 23.0157 5.6057
5675 6 14.575 22.1197 4.32077
5673 1 16.1905 21.316 3.22878
5678 1 16.1334 23.0028 5.50412
5687 1 19.1231 21.3122 3.1534
5689 2 17.6909 22.1412 4.36773
5692 1 19.0903 23.0241 5.65508
5701 1 22.1108 21.2652 3.18385
5703 2 20.613 22.1721 4.43025
5706 1 22.11 23.0256 5.63901
5717 2 23.5979 22.168 4.4187
5715 1 25.0357 21.2804 3.20285
5720 1 25.0979 23.0173 5.6384
5731 2 26.5587 22.1723 4.42473
5729 1 27.9875 21.3124 3.23897
5734 1 28.0699 23.0045 5.68376
7003 1 1.21506 26.4335 3.06579
7007 1 -0.304377 25.603 5.5171
5604 1 -0.299803 23.9205 3.06549
5606 2 1.20448 24.7188 4.29723
7017 1 4.20049 26.4371 3.08453
7021 1 2.69138 25.5825 5.55413
5618 1 2.71004 23.9204 3.09311
5620 2 4.19931 24.7234 4.32738
5632 1 5.75957 23.8989 3.08695
7031 1 7.15194 26.4906 3.1182
7035 1 5.68401 25.5942 5.57229
5634 2 7.19594 24.7452 4.35509
7049 1 8.67661 25.6071 5.58212
5646 1 8.67058 23.8801 3.16034
7045 1 10.1919 26.5468 3.16031
5648 2 10.1899 24.7626 4.38321
7063 1 11.6389 25.5991 5.58186
5660 1 11.671 23.8963 3.2177
7059 1 13.2264 26.4205 3.1747
5662 2 13.1751 24.7354 4.3939
7073 1 16.1556 26.468 3.1625
7077 1 14.6962 25.5597 5.61181
5674 1 14.6778 23.9221 3.21312
5676 2 16.1443 24.8112 4.37544
7087 1 19.098 26.5109 3.20533
5688 1 17.6675 23.9242 3.21457
7091 1 17.6222 25.5773 5.68251
5690 2 19.1229 24.7531 4.44187
5702 1 20.5652 23.8644 3.22308
7105 1 20.6205 25.6169 5.65961
7101 1 22.1721 26.4486 3.22941
5704 2 22.1154 24.7572 4.43243
7115 1 25.1173 26.4945 3.18023
7119 1 23.6121 25.6197 5.68508
5716 1 23.6018 23.96 3.21579
5718 2 25.0957 24.7511 4.42904
7129 1 28.0491 26.4186 3.14004
7133 1 26.6008 25.5906 5.65313
5730 1 26.5749 23.9315 3.20128
5732 2 28.071 24.7166 4.42154
5744 1 29.5149 23.866 3.08578
7005 2 -0.288283 27.298 4.32497
7008 1 1.19065 28.179 5.56661
7019 2 2.68975 27.3061 4.33821
7022 1 4.17578 28.1631 5.60982
7032 1 5.69583 28.9837 3.08233
7033 2 5.68249 27.3197 4.3559
7036 1 7.16202 28.2017 5.59809
7046 1 8.6394 29.0494 3.09409
7060 1 11.6091 29.0822 3.1461
7047 2 8.66915 27.3367 4.36763
7050 1 10.1436 28.2075 5.62018
7061 2 11.6651 27.3485 4.37269
7064 1 13.1102 28.2058 5.55195
7074 1 14.7046 29.0439 3.16797
7075 2 14.6543 27.3138 4.4003
7078 1 16.1639 28.1675 5.63888
7088 1 17.6354 29.0563 3.18986
7102 1 20.5736 29.0663 3.18809
7089 2 17.6316 27.3326 4.45782
7092 1 19.1305 28.1915 5.68414
7103 6 20.6275 27.3353 4.43306
7106 1 22.125 28.2007 5.65955
7116 1 23.6767 29.0702 3.21153
7117 2 23.6202 27.3381 4.44109
7120 1 25.1319 28.1996 5.6332
7131 2 26.6063 27.2221 4.48917
7130 1 26.5983 29.0452 3.092
7134 1 28.0733 28.1519 5.67282
11 1 -0.26497 1.38869 7.99375
13 3 -0.302706 -0.291209 8.9552
9 2 1.20453 0.572497 6.72381
14 3 1.18849 2.30109 8.94497
25 1 2.67761 1.48453 7.96823
27 7 2.67848 -0.30398 8.97177
23 2 4.15852 0.574906 6.73403
28 3 4.14364 2.31021 8.97638
39 1 5.56746 1.42296 8.00674
41 7 5.68067 -0.310412 8.92301
37 2 7.16344 0.559232 6.73038
42 7 7.16344 2.28566 8.97177
53 1 8.71564 1.3937 7.96538
55 3 8.66575 -0.300012 8.93115
51 2 10.1725 0.576772 6.71544
56 7 10.1534 2.28566 8.97177
67 1 11.698 1.3721 7.97281
69 7 11.6734 -0.298618 8.955
65 2 13.158 0.567881 6.69973
70 3 13.1642 2.25545 8.92722
81 1 14.6353 1.40477 7.95098
83 3 14.6279 -0.295157 8.93228
79 2 16.1557 0.580917 6.71303
84 3 16.1334 2.28566 8.97177
95 1 17.6825 1.51281 7.94915
97 7 17.6283 -0.30398 8.97177
93 2 19.1233 0.559232 6.73038
98 3 19.1933 2.27437 8.92097
109 1 20.6505 1.46636 7.90973
111 7 20.6183 -0.30398 8.97177
107 2 22.132 0.57841 6.64444
112 3 22.1133 2.28566 8.97177
123 1 23.5925 1.41385 7.82997
125 7 23.6083 -0.30398 8.97177
121 6 25.1033 0.559232 6.73038
126 7 25.1033 2.28566 8.97177
137 5 26.6212 1.40856 7.80845
139 7 26.5983 -0.30398 8.97177
135 6 28.1254 0.626524 6.67433
140 7 28.0932 2.28566 8.97177
1413 7 -0.311491 4.87529 8.97177
10 2 -0.311491 3.14887 6.73038
12 1 1.19954 3.97924 7.95236
1427 7 2.67848 4.87529 8.97177
24 2 2.67803 3.17038 6.72187
26 1 4.21405 4.00679 7.99
1441 3 5.67309 4.88977 8.9607
38 2 5.66676 3.16686 6.74379
40 1 7.16396 4.08142 7.97806
1455 3 8.62582 4.92518 8.97684
52 2 8.64538 3.17668 6.73914
54 1 10.0411 4.08182 7.98195
1469 7 11.6484 4.87529 8.97177
66 2 11.6484 3.14887 6.73038
68 1 13.2048 3.95799 7.97203
1483 7 14.6384 4.87529 8.97177
80 2 14.6627 3.15528 6.71955
82 1 16.1456 4.03021 7.90645
1497 7 17.6283 4.87529 8.97177
94 2 17.6431 3.17968 6.71974
96 1 19.2085 3.96629 7.97984
1511 3 20.6679 4.86496 8.93606
108 2 20.6554 3.17342 6.70594
110 1 22.1671 4.04514 7.97315
1525 3 23.6503 4.90814 8.92759
122 2 23.6242 3.16273 6.68336
124 1 25.105 4.04904 7.93037
1539 7 26.5791 4.87693 8.92943
136 6 26.5918 3.15832 6.66632
138 1 28.0466 4.0358 7.93127
1553 3 29.5176 4.87748 8.91649
150 2 29.548 3.14767 6.68425
1411 1 -0.284138 6.62368 7.94363
1410 2 -0.332804 8.34912 6.74067
1409 2 1.17046 5.76354 6.7309
1414 3 1.14342 7.46996 8.96684
1425 1 2.60138 6.65327 7.95853
1424 2 2.66322 8.34948 6.75012
1423 2 4.15498 5.75667 6.74883
1428 3 4.17347 7.46493 8.97177
1439 1 5.63438 6.56361 7.9565
1438 2 5.65414 8.34784 6.74769
1437 2 7.14911 5.76611 6.7373
1442 7 7.16344 7.46493 8.97177
1453 1 8.68139 6.60724 7.97305
1452 2 8.64245 8.35071 6.74397
1451 2 10.1416 5.7674 6.73473
1456 3 10.135 7.47435 8.96147
1467 1 11.5983 6.656 7.96001
1466 2 11.645 8.35058 6.76004
1465 2 13.1432 5.74644 6.74849
1470 7 13.1434 7.46493 8.97177
1481 1 14.6351 6.58158 7.92535
1480 2 14.6452 8.3322 6.75509
1479 2 16.1201 5.74803 6.72644
1484 3 16.1334 7.46493 8.97177
1495 1 17.5765 6.62225 7.92052
1494 2 17.6221 8.33222 6.7538
1493 2 19.1233 5.73851 6.73038
1498 7 19.1233 7.46493 8.97177
1508 2 20.5332 8.37876 6.85392
1509 1 20.6711 6.54869 7.95138
1507 2 22.1398 5.68004 6.79625
1512 7 22.1133 7.46493 8.97177
1523 1 23.6239 6.59671 7.93178
1522 2 23.616 8.37062 6.82213
1521 2 25.0762 5.74424 6.68167
1526 3 25.0935 7.42435 8.93135
1537 1 26.5851 6.57193 7.97233
1536 2 26.5983 8.32814 6.73038
1535 2 28.0675 5.7434 6.69546
1540 3 28.0633 7.4412 8.9426
1551 1 29.5121 6.59566 7.97365
2813 3 -0.341099 10.0149 9.00077
2809 2 1.17886 10.9179 6.77116
1412 1 1.12308 9.17485 8.00089
2827 7 2.67848 10.0546 8.97177
2823 2 4.16474 10.9396 6.74846
1426 1 4.17292 9.21009 7.9235
2841 7 5.66845 10.0546 8.97177
2837 2 7.14921 10.9391 6.75388
1440 1 7.1791 9.22614 7.95695
2855 3 8.62773 10.0509 8.96923
2851 2 10.152 10.9356 6.77223
1454 1 10.0998 9.18546 8.00054
2869 7 11.6484 10.0546 8.97177
2865 2 13.1496 10.9267 6.7567
1468 1 13.217 9.22178 7.97354
2883 3 14.6629 10.0657 8.97925
2879 2 16.1449 10.9102 6.73379
1482 1 16.1425 9.22797 8.00095
2897 3 17.6072 10.0663 9.00557
2893 2 19.1154 10.9113 6.76094
1496 1 19.0876 9.22363 8.02708
2911 3 20.5683 10.0482 9.01205
2907 2 22.0861 10.9075 6.77705
1510 1 22.0069 9.20963 7.98706
2925 7 23.6083 10.0546 8.97177
2921 2 25.0818 10.9247 6.78199
1524 1 25.0137 9.14262 8.01158
2939 7 26.5983 10.0546 8.97177
2935 2 28.0739 10.9256 6.77329
1538 1 28.1923 9.18734 8.05012
2811 1 -0.310654 11.6723 8.02262
2810 2 -0.311491 13.5074 6.73038
2812 1 1.18742 14.4467 7.99703
2814 7 1.1835 12.6442 8.97177
2825 1 2.6834 11.7904 7.92618
2824 2 2.66353 13.5172 6.73684
2826 1 4.09856 14.4152 7.95798
2828 7 4.17347 12.6442 8.97177
2839 1 5.68638 11.8192 7.97838
2838 2 5.65349 13.4555 6.82368
2840 1 7.13284 14.3166 7.9697
2842 3 7.14681 12.6426 8.97519
2853 1 8.61117 11.7636 8.01038
2852 2 8.64437 13.5188 6.7729
2854 1 10.1387 14.3747 7.95738
2856 7 10.1534 12.6442 8.97177
2867 1 11.6975 11.8178 7.98038
2866 2 11.6473 13.5199 6.78013
2868 1 13.1358 14.3216 8.01227
2870 3 13.1542 12.6328 8.99094
2881 1 14.6366 11.78 8.01409
2880 2 14.6298 13.5068 6.78166
2882 1 16.1017 14.2674 8.06801
2884 3 16.1275 12.5908 9.01194
2895 1 17.6111 11.7489 8.02766
2894 2 17.6283 13.5074 6.73038
2896 1 19.1532 14.3868 8.10437
2898 3 19.107 12.6315 8.95244
2909 1 20.5735 11.7149 8.0275
2908 2 20.6183 13.5074 6.73038
2910 1 22.1405 14.4006 7.99913
2912 7 22.1133 12.6442 8.97177
2923 1 23.661 11.8071 8.00567
2922 2 23.6111 13.5202 6.80123
2924 1 25.0872 14.3324 8.03306
2926 3 25.1084 12.6454 9.01267
2937 1 26.5846 11.8194 8.02212
2936 2 26.5868 13.524 6.80601
2938 1 28.0897 14.3154 8.03146
2940 3 28.0745 12.6273 9.0103
4209 2 1.16529 16.1039 6.73341
4225 1 2.66408 16.8751 7.98855
4227 3 2.654 15.2326 8.9884
4223 2 4.09787 16.1175 6.81215
4239 5 5.66802 16.9185 7.93266
4241 7 5.66845 15.2338 8.97177
4237 6 7.2357 16.1385 6.84873
4253 1 8.68721 16.9682 8.02077
4255 3 8.65843 15.2338 8.97177
4251 2 10.1472 16.1119 6.79022
4267 1 11.5892 16.9964 8.03901
4269 7 11.6484 15.2338 8.97177
4265 6 13.1337 16.1084 6.83053
4281 1 14.6443 16.9994 8.0625
4283 7 14.6384 15.2338 8.97177
4279 2 16.1334 16.0971 6.73038
4295 1 17.6197 17.0411 8.08437
4297 7 17.6283 15.2338 8.97177
4293 2 19.1314 16.1334 6.84809
4309 1 20.6576 16.9957 8.06274
4311 7 20.6183 15.2338 8.97177
4307 2 22.119 16.1266 6.83083
4323 1 23.5653 16.9884 8.06555
4325 3 23.6083 15.2338 8.97177
4321 6 25.105 16.1205 6.85442
4351 1 29.5477 16.9976 8.05522
4337 1 26.6631 17.0077 8.05388
4339 7 26.5983 15.2338 8.97177
4335 2 28.099 16.1368 6.82133
5613 3 -0.311491 20.4131 8.97177
4210 2 -0.330447 18.6806 6.72607
4212 1 1.21024 19.5912 7.96604
4214 7 1.1835 17.8235 8.97177
5627 3 2.67636 20.4149 8.9531
4224 6 2.67848 18.6867 6.73038
4226 1 4.21977 19.6174 8.03885
4228 7 4.17347 17.8235 8.97177
5641 3 5.66619 20.4459 9.02675
4238 6 5.66707 18.672 6.79984
4240 1 7.13461 19.5844 8.05038
4242 7 7.16344 17.8235 8.97177
5655 3 8.62241 20.3963 9.0364
4252 2 8.63598 18.6729 6.81933
4254 1 10.0919 19.5227 8.0731
4256 3 10.1224 17.815 9.03538
5669 7 11.6484 20.4131 8.97177
4266 2 11.6458 18.6969 6.84587
4268 1 13.1855 19.5779 8.04806
4270 7 13.1434 17.8235 8.97177
5683 3 14.6192 20.421 9.0655
4280 2 14.6336 18.712 6.83661
4282 1 16.0903 19.5482 8.10441
4284 3 16.1123 17.8256 9.04237
5697 7 17.6283 20.4131 8.97177
4294 2 17.6357 18.7282 6.85534
4296 1 19.1181 19.5694 8.04387
4298 3 19.1233 17.8235 8.97177
5711 7 20.6183 20.4131 8.97177
4308 2 20.6181 18.7077 6.86105
4310 1 22.1152 19.4973 8.0861
4312 3 22.1126 17.8148 9.07192
5725 7 23.6083 20.4131 8.97177
4322 2 23.6101 18.7022 6.87082
4324 1 25.1671 19.5879 8.08078
4326 7 25.1033 17.8235 8.97177
5739 3 26.6238 20.4188 9.0781
4336 2 26.6062 18.7168 6.85496
4338 1 28.1138 19.5988 8.08018
4340 3 28.1079 17.8759 9.03846
5611 1 -0.306408 22.1173 7.99578
5609 2 1.18256 21.266 6.73609
5614 3 1.16075 22.9865 8.95922
5625 1 2.6287 22.1192 7.98718
5623 2 4.20157 21.2755 6.75582
5628 7 4.17347 23.0028 8.97177
5639 1 5.67351 22.0956 7.988
5637 2 7.17981 21.2752 6.7998
5642 7 7.16344 23.0028 8.97177
5653 1 8.6715 22.0715 8.03474
5651 2 10.1506 21.2758 6.83884
5656 7 10.1534 23.0028 8.97177
5667 1 11.7009 22.1682 8.04945
5665 2 13.149 21.2837 6.83053
5670 3 13.1621 22.9496 9.08038
5681 1 14.6229 22.1124 8.07049
5679 6 16.139 21.2199 6.93796
5684 7 16.1334 23.0028 8.97177
5695 1 17.686 22.2026 8.08047
5693 2 19.1227 21.3071 6.87966
5698 3 19.1358 23.0257 9.09733
5709 1 20.6297 22.2062 8.12656
5707 2 22.1111 21.2965 6.89136
5712 3 22.1092 23.0483 9.10343
5723 1 23.5921 22.2119 8.12816
5721 2 25.1062 21.2882 6.86932
5726 3 25.0932 23.014 9.10575
5737 1 26.5495 22.1331 8.12799
5735 2 27.999 21.3629 6.94891
5740 7 28.0932 23.0028 8.97177
7013 3 -0.3203 25.5084 8.93602
5610 2 -0.311491 23.866 6.73038
7009 2 1.19166 26.4414 6.77965
5612 1 1.26696 24.7377 8.06612
7027 3 2.7265 25.5997 9.02748
5624 2 2.7056 23.8566 6.76712
7023 2 4.18223 26.4698 6.79098
5626 1 4.20405 24.7772 8.03269
7041 3 5.67429 25.6216 9.02016
5638 6 5.68471 23.8695 6.80259
7037 2 7.16577 26.4726 6.81292
5640 1 7.17007 24.7864 8.06146
7055 3 8.64664 25.6291 9.0419
5652 6 8.66958 23.8769 6.83572
7051 2 10.1429 26.4832 6.83287
5654 1 10.1462 24.8035 8.0812
7069 3 11.6604 25.6207 9.0287
5666 2 11.6582 23.8688 6.83964
7065 2 13.1434 26.4556 6.73038
5668 1 13.1419 24.6622 8.15118
5680 2 14.5877 23.8905 6.91848
7083 3 14.6227 25.5615 9.0891
7079 2 16.1485 26.4489 6.88304
5682 1 16.0701 24.7362 8.0699
7097 7 17.6283 25.5924 8.97177
5694 2 17.6946 23.9154 6.94756
7093 6 19.1295 26.4702 6.89828
5696 1 19.1253 24.7078 8.10992
7111 7 20.6183 25.5924 8.97177
5708 2 20.6191 23.8905 6.8796
7107 2 22.1233 26.4825 6.89516
5710 1 22.1154 24.7174 8.09533
7125 3 23.6083 25.5924 8.97177
5722 2 23.6066 23.8912 6.88527
7121 2 25.1083 26.4751 6.88864
5724 1 25.1515 24.7132 8.12696
7139 3 26.6047 25.6007 9.09783
5736 2 26.6124 23.8709 6.87348
7135 2 28.1155 26.4687 6.87544
5738 1 28.0626 24.7842 8.08924
7011 1 -0.338224 27.216 7.98808
7010 2 -0.312247 29.0307 6.76707
7014 7 1.1835 28.182 8.97177
7025 1 2.67754 27.2636 8.00831
7024 2 2.66443 29.041 6.79678
7028 7 4.17347 28.182 8.97177
7039 1 5.66199 27.2966 8.02073
7038 2 5.65215 29.0624 6.82069
7042 7 7.16344 28.182 8.97177
7053 1 8.6402 27.3001 8.03664
7052 6 8.63643 29.0673 6.8331
7056 7 10.1534 28.182 8.97177
7067 1 11.6187 27.3495 8.10962
7066 2 11.6123 29.0831 6.83811
7070 7 13.145 28.176 9.01457
7081 1 14.705 27.2941 8.20157
7080 2 14.6384 29.0452 6.73038
7084 3 16.1628 28.2046 9.11644
7095 1 17.6055 27.3578 8.11119
7094 2 17.6515 29.0587 6.90168
7098 7 19.1233 28.182 8.97177
7109 1 20.6354 27.325 8.06725
7108 2 20.6317 29.0638 6.88949
7112 3 22.1133 28.182 8.97177
7123 1 23.6731 27.3967 8.10338
7122 2 23.6327 29.0698 6.89084
7126 3 25.1506 28.2047 9.09157
7136 2 26.633 29.0356 6.86025
7137 1 26.5838 27.2961 8.11017
7140 7 28.0932 28.182 8.97177
8401 7 -0.311491 30.7717 2.03646
8415 7 2.67848 30.7717 2.03646
8429 7 5.66845 30.7717 2.03646
8443 3 8.66032 30.7664 2.12589
8457 3 11.6536 30.7984 2.19798
8471 3 14.6993 30.7236 2.15996
8485 3 17.6239 30.7579 2.199
8499 3 20.595 30.7631 2.20118
8513 3 23.6368 30.7447 2.19516
8527 7 26.5596 30.915 2.09598
8402 3 1.19953 33.3727 2.05769
8404 1 -0.297633 34.2485 2.99114
8416 3 4.17347 33.3613 2.03646
8430 7 7.16344 33.3613 2.03646
8444 3 10.0846 33.2989 2.09215
8458 7 13.1434 33.3613 2.03646
8472 7 16.1334 33.3613 2.03646
8486 3 19.1163 33.3575 2.17917
8500 3 22.0837 33.3168 2.16398
8514 7 25.1033 33.3613 2.03646
8528 3 28.0895 33.3429 2.10496
9801 3 -0.28521 35.9774 2.04167
9802 7 1.29502 38.4652 1.9852
9803 1 1.15569 36.8455 3.04653
9815 7 2.67848 35.9509 2.03646
9816 3 4.19508 38.5241 2.05977
9817 1 4.25432 36.8277 3.04003
9829 3 5.71869 35.9395 2.08172
9830 7 7.16344 38.5406 2.03646
9831 1 7.21158 36.7445 3.06392
9843 7 8.70045 35.8957 2.10268
9844 3 10.2153 38.4774 2.16119
9857 3 11.6526 36.0099 2.13601
9858 3 13.1296 38.4468 2.17587
9871 7 14.6384 35.9509 2.03646
9872 3 16.1317 38.4853 2.14608
9885 3 17.6623 35.9263 2.16247
9886 7 19.1233 38.5406 2.03646
9899 3 20.5993 35.9142 2.1631
9900 7 22.1133 38.5406 2.03646
9913 7 23.6083 35.9509 2.03646
9914 3 25.1059 38.5873 2.13658
9927 7 26.5983 35.9509 2.03646
9928 7 28.0932 38.5406 2.03646
11201 3 -0.292749 41.149 2.02114
11215 7 2.67848 41.1302 2.03646
9818 1 2.68886 39.34 3.01844
11229 3 5.66845 41.1302 2.03646
9832 1 5.63228 39.3914 3.05736
11243 7 8.65843 41.1302 2.03646
11257 7 11.6484 41.1302 2.03646
9860 1 11.6782 39.4315 3.048
11271 7 14.6384 41.1302 2.03646
11285 7 17.6283 41.1302 2.03646
11299 3 20.6495 41.153 2.13673
11313 3 23.6263 41.1234 2.145
11327 7 26.5983 41.1302 2.03646
11202 3 1.1835 43.7199 2.03646
11218 1 2.6356 44.6163 2.9859
11204 1 -0.265468 44.5573 3.04406
11203 1 1.14655 41.9515 3.03215
11216 7 4.17347 43.7199 2.03646
11230 3 7.16344 43.7199 2.03646
11244 7 10.1534 43.7199 2.03646
11258 3 13.1706 43.7373 2.10363
11272 7 16.1334 43.7199 2.03646
11286 3 19.169 43.7527 2.12327
11300 7 22.1133 43.7199 2.03646
11314 7 25.1033 43.7199 2.03646
11328 7 28.0932 43.7199 2.03646
12601 7 -0.311491 46.3095 2.03646
12603 1 1.22354 47.1498 3.0285
12615 7 2.68746 46.3219 2.04055
12617 1 4.15123 47.2175 2.9889
12629 7 5.66845 46.3095 2.03646
12631 1 7.1917 47.2015 3.05604
12643 7 8.65843 46.3095 2.03646
12657 3 11.7086 46.29 2.08632
12671 7 14.6384 46.3095 2.03646
12685 3 17.679 46.2869 2.11346
12699 3 20.615 46.3257 2.11616
12713 7 23.6083 46.3095 2.03646
12727 3 26.6423 46.3274 2.13497
12602 7 1.1835 48.8991 2.03646
12604 1 -0.337932 49.737 3.05319
12616 3 4.20563 48.8781 1.9938
12618 1 2.78765 49.725 2.98387
12630 3 7.16938 48.8644 2.03764
12632 1 5.67865 49.7072 2.99274
12646 1 8.6107 49.7146 3.0422
12644 7 10.1534 48.8991 2.03646
12658 7 13.1434 48.8991 2.03646
12660 1 11.6351 49.8091 3.04979
12672 7 16.1334 48.8991 2.03646
12686 7 19.1233 48.8991 2.03646
12700 3 22.1122 48.9115 2.10729
12714 7 25.1033 48.8991 2.03646
12728 3 28.1022 48.9472 2.14807
14001 7 -0.311491 51.4888 2.03646
14015 3 2.67848 51.4888 2.03646
14017 1 4.18488 52.4138 3.01545
14029 3 5.66845 51.4888 2.03646
14043 7 8.65843 51.4888 2.03646
14045 1 10.2453 52.3009 3.02722
14057 3 11.6778 51.4769 2.04335
14059 1 13.0814 52.3451 3.03029
14071 7 14.6384 51.4888 2.03646
14085 3 17.6489 51.4907 2.10174
14099 7 20.6183 51.4888 2.03646
14113 3 23.6405 51.4853 2.12056
14127 7 26.4953 51.4244 2.06273
14002 7 1.1835 54.0784 2.03646
14004 1 -0.303313 54.8949 2.92177
15415 3 2.71292 56.5827 1.94274
14016 3 4.1843 54.0843 2.00466
14018 1 2.70622 54.9196 2.98217
15429 3 5.61156 56.6081 1.9753
14030 7 7.16344 54.0784 2.03646
14032 1 5.63746 54.9388 3.00259
14044 7 10.1534 54.0784 2.03646
14046 1 8.68634 55.0812 2.99686
15457 7 11.6484 56.668 2.03646
14058 7 13.1434 54.0784 2.03646
15471 3 14.6384 56.668 2.03646
14072 7 16.1334 54.0784 2.03646
15485 7 17.6283 56.668 2.03646
14086 7 19.1233 54.0784 2.03646
15499 7 20.6183 56.668 2.03646
14100 7 22.1133 54.0784 2.03646
15513 7 23.6083 56.668 2.03646
14114 7 25.1033 54.0784 2.03646
15527 3 26.5943 56.6389 2.12579
14128 3 28.1087 54.183 2.10626
15402 3 1.14969 59.2144 2.02478
15403 1 1.23809 57.4442 2.88399
15416 7 4.17347 59.2577 2.03646
15417 1 4.12732 57.4405 2.94954
15430 7 7.1736 59.2576 2.09327
15431 1 7.09793 57.466 2.90213
15443 3 8.67643 56.7437 2.02294
15444 3 10.1151 59.297 2.07051
15445 1 10.1962 57.5512 2.95921
15458 7 13.1434 59.2577 2.03646
15472 7 16.1334 59.2577 2.03646
15486 3 19.1607 59.2526 2.09902
15500 3 22.134 59.2567 2.12452
15514 7 25.1229 59.2297 2.15655