ITEM: TIMESTEP
100000
ITEM: NUMBER OF ATOMS
81200
ITEM: BOX BOUNDS pp pp pp
-1.9780453348996274e-01 2.9849730042951330e+02
-2.1529028393669389e-01 2.9986300225811016e+02
0.0000000000000000e+00 4.9031656433928198e+01
ITEM: ATOMS id type x y z
1 3 -0.184494 -0.111046 2.07584
2 3 1.32968 2.45399 2.08832
3 1 1.2791 0.751153 3.05758
15 7 2.82648 -0.144249 2.03646
16 3 4.31663 2.47484 2.08248
29 7 5.81343 -0.144249 2.03646
30 3 7.32801 2.46411 2.07747
31 1 7.35619 0.754354 3.03844
43 3 8.82827 -0.0811008 2.0463
44 3 10.2742 2.47298 2.06897
45 1 10.284 0.772854 3.04186
57 7 11.7873 -0.144249 2.03646
58 7 13.2808 2.44263 2.03646
59 1 13.3644 0.699168 3.04478
71 3 14.8263 -0.118961 2.04276
72 7 16.2678 2.44263 2.03646
85 7 17.7612 -0.144249 2.03646
86 3 19.2688 2.53081 2.07816
87 1 19.2767 0.842402 3.06279
99 7 20.7482 -0.144249 2.03646
100 7 22.2417 2.44263 2.03646
113 7 23.7435 -0.0274018 2.0446
114 3 25.2075 2.41223 2.0868
127 7 26.7221 -0.144249 2.03646
128 7 28.2156 2.44263 2.03646
1401 7 -0.160468 5.02951 2.03646
1415 7 2.82648 5.02951 2.03646
18 1 2.81993 3.27796 3.06399
1429 3 5.81136 5.05128 2.09914
32 1 5.82525 3.31691 3.03224
1443 7 8.80039 5.02951 2.03646
1457 7 11.7873 5.02951 2.03646
1471 7 14.7743 5.02951 2.03646
1485 3 17.7978 5.08573 2.10012
1499 3 20.7392 5.07962 2.09925
1513 7 23.7351 5.02951 2.03646
1527 7 26.7221 5.02951 2.03646
1402 7 1.33301 7.6164 2.03646
1416 7 4.31996 7.6164 2.03646
1430 7 7.30691 7.6164 2.03646
1444 7 10.2939 7.6164 2.03646
1458 3 13.3208 7.63085 2.11668
1472 3 16.2995 7.61818 2.12121
1486 7 19.2556 7.66767 2.12828
1500 7 22.2417 7.6164 2.03646
1514 3 25.2174 7.67733 2.11646
1528 3 28.2103 7.62291 2.10493
2801 3 -0.165088 10.2402 2.12965
2815 3 2.80973 10.2136 2.12415
2829 7 5.81343 10.2033 2.03646
2843 3 8.80297 10.2671 2.13005
2857 7 11.7873 10.2033 2.03646
2871 7 14.7743 10.2033 2.03646
2885 7 17.7612 10.2033 2.03646
2899 3 20.7506 10.2278 2.14722
2913 3 23.7308 10.2028 2.14701
2927 7 26.7221 10.2033 2.03646
2802 7 1.33301 12.7902 2.03646
2816 7 4.31996 12.7902 2.03646
2830 3 7.31752 12.848 2.14942
2844 7 10.2939 12.7902 2.03646
2858 7 13.2808 12.7902 2.03646
2872 7 16.2678 12.7902 2.03646
2886 3 19.2924 12.851 2.16394
2900 7 22.2417 12.7902 2.03646
2914 7 25.2286 12.7902 2.03646
2928 7 28.2156 12.7902 2.03646
4201 7 -0.160468 15.377 2.03646
4215 7 2.82648 15.377 2.03646
4229 3 5.8432 15.3968 2.15933
4243 7 8.80039 15.377 2.03646
4257 7 11.7873 15.377 2.03646
4271 3 14.8084 15.4472 2.18007
4285 3 17.7912 15.4227 2.18891
4299 7 20.7482 15.377 2.03646
4313 7 23.7351 15.377 2.03646
4327 7 26.7221 15.377 2.03646
5601 7 -0.160468 20.5508 2.03646
4202 7 1.33301 17.9639 2.03646
5615 3 2.86735 20.5137 2.12639
4216 3 4.35847 17.9406 2.14551
5629 7 5.81343 20.5508 2.03646
4230 7 7.30691 17.9639 2.03646
5643 3 8.86838 20.5626 2.16992
4244 3 10.3308 18.003 2.18111
5657 7 11.8122 20.5434 2.18909
4258 3 13.3275 17.9804 2.18813
5671 7 14.7743 20.5508 2.03646
4272 7 16.2744 18.0002 2.20792
5685 3 17.7494 20.599 2.22151
4286 7 19.2547 17.9639 2.03646
5699 3 20.7535 20.5781 2.21873
4300 7 22.2417 17.9639 2.03646
5713 3 23.725 20.5652 2.21043
4314 7 25.2286 17.9639 2.03646
5727 7 26.7221 20.5508 2.03646
4328 7 28.2156 17.9639 2.03646
5602 7 1.33301 23.1377 2.03646
5616 7 4.31996 23.1377 2.03646
5630 3 7.38429 23.1471 2.15996
5644 7 10.2939 23.1377 2.03646
5658 7 13.2808 23.1377 2.03646
5672 7 16.2678 23.1377 2.03646
5686 3 19.2441 23.1709 2.22721
5700 7 22.2417 23.1377 2.03646
5714 7 25.2286 23.1377 2.03646
5728 7 28.2156 23.1377 2.03646
7001 3 -0.118011 25.7261 2.10769
7015 7 2.86627 25.7198 2.12132
7029 3 5.86201 25.7203 2.15091
7043 7 8.80039 25.7246 2.03646
7057 7 11.7873 25.7246 2.03646
7071 7 14.8155 25.7117 2.21041
7085 3 17.7876 25.7448 2.22446
7099 7 20.7482 25.7246 2.03646
7113 3 23.7668 25.7624 2.22366
7127 3 26.7182 25.7455 2.20507
7002 3 1.37815 28.2646 2.10551
7016 3 4.35016 28.2637 2.13025
7030 7 7.31409 28.3005 2.1567
7044 3 10.3045 28.3294 2.17824
7058 7 13.2808 28.3115 2.03646
7072 3 16.2898 28.3203 2.2104
7086 3 19.2338 28.3297 2.21159
7100 7 22.2417 28.3115 2.03646
7114 7 25.1785 28.2917 2.17612
7128 7 28.3147 28.2185 2.11571
5 2 -0.164908 1.59878 4.30858
7 1 -0.15478 -0.134763 5.52816
8 1 1.33803 2.45223 5.53769
19 2 2.82882 1.59059 4.29964
21 1 2.83429 -0.140829 5.51845
17 1 4.32313 0.797314 3.07801
22 1 4.32847 2.45361 5.53164
33 2 5.82192 1.59421 4.29127
35 1 5.82644 -0.138781 5.48771
36 1 7.31218 2.45385 5.54512
47 2 8.81021 1.59919 4.29584
49 1 8.81038 -0.14139 5.4962
50 1 10.3041 2.45615 5.54308
61 2 11.8003 1.59561 4.27116
63 1 11.8031 -0.134411 5.46955
64 1 13.2897 2.45142 5.49875
75 2 14.7937 1.597 4.28194
77 1 14.7981 -0.135035 5.49618
73 1 16.2526 0.728691 3.06646
78 1 16.2889 2.45105 5.52599
89 2 17.7808 1.61322 4.28466
91 1 17.7904 -0.130584 5.50163
92 1 19.277 2.46233 5.52452
103 2 20.7662 1.61714 4.28527
105 1 20.772 -0.144017 5.49847
101 1 22.2944 0.711217 3.0897
106 1 22.2544 2.4486 5.52021
117 2 23.7434 1.57771 4.30295
119 1 23.7487 -0.195504 5.47076
115 1 25.1955 0.725996 3.08899
120 1 25.2356 2.40726 5.52666
131 2 26.7078 1.65403 4.22276
133 1 26.7221 -0.144249 5.50412
129 1 28.2404 0.700778 3.09986
134 1 28.1815 2.41775 5.50332
147 1 29.6619 -0.136654 5.5215
1407 1 -0.164406 5.04277 5.55427
4 1 -0.101243 3.30881 3.10379
6 2 1.33732 4.18851 4.32068
1421 1 2.82829 5.04313 5.5562
20 2 4.32007 4.18283 4.31207
1435 1 5.81409 5.0364 5.54468
34 2 7.31034 4.18677 4.30734
46 1 8.8026 3.2972 3.06662
1449 1 8.80325 5.04603 5.52133
48 2 10.2963 4.19042 4.30858
60 1 11.7307 3.29999 3.07552
1463 1 11.8022 5.03822 5.55072
62 2 13.2829 4.18433 4.30348
1477 1 14.7808 5.03667 5.54781
74 1 14.7708 3.3407 3.12844
76 2 16.2783 4.18553 4.31818
88 1 17.8028 3.37669 3.06629
1491 1 17.7808 5.04224 5.56753
90 2 19.2734 4.20122 4.32554
102 1 20.7331 3.37513 3.06931
1505 1 20.7792 5.07136 5.55069
104 2 22.2477 4.19062 4.30428
1519 1 23.7199 5.05474 5.51122
116 1 23.7874 3.29526 3.08911
118 2 25.2168 4.16871 4.29224
130 1 26.6582 3.27506 3.06462
1533 1 26.7008 5.02135 5.50406
132 2 28.1973 4.17164 4.28979
1405 2 -0.172244 6.77239 4.32519
1404 1 -0.190793 8.55722 3.11894
1403 1 1.32525 5.93052 3.15417
1408 1 1.32718 7.62919 5.54468
1419 2 2.82412 6.77073 4.32577
1418 1 2.82732 8.53912 3.12353
1417 1 4.36362 5.8859 3.10805
1422 1 4.31401 7.62511 5.56267
1433 2 5.81113 6.7723 4.32768
1432 1 5.81075 8.50864 3.16023
1431 1 7.25732 5.89898 3.09957
1436 1 7.30563 7.6326 5.55459
1447 2 8.79888 6.78502 4.31089
1446 1 8.79855 8.57802 3.10936
1445 1 10.2881 5.93469 3.14243
1450 1 10.2969 7.6397 5.53737
1461 2 11.7993 6.77653 4.33104
1460 1 11.8748 8.47967 3.11659
1459 1 13.285 5.95789 3.11804
1464 1 13.2897 7.62955 5.58646
1474 1 14.8093 8.44932 3.09529
1473 1 16.3273 5.91943 3.09736
1475 2 14.7883 6.76428 4.33874
1478 1 16.2803 7.63009 5.58494
1487 1 19.2706 5.94418 3.08316
1488 1 17.7618 8.4687 3.11449
1502 1 20.7051 8.53138 3.13336
1489 2 17.7774 6.77876 4.35554
1492 1 19.301 7.63261 5.59415
1503 2 20.6998 6.75024 4.28219
1501 1 22.1837 5.90165 3.1242
1506 1 22.2417 7.6164 5.50412
1516 1 23.7609 8.51013 3.13527
1517 2 23.7835 6.73623 4.2539
1515 1 25.207 5.97947 3.07879
1520 1 25.1772 7.62253 5.55347
1530 1 26.7296 8.45748 3.09037
1529 1 28.2332 5.92095 3.07587
1531 2 26.7023 6.76635 4.31546
1534 1 28.1893 7.62531 5.5553
2803 1 1.3317 11.0387 3.11172
2807 1 -0.168838 10.2201 5.57532
1406 2 1.32383 9.35578 4.34077
2821 1 2.82071 10.2203 5.58893
2817 1 4.25095 11.0604 3.13258
1420 2 4.31189 9.35982 4.34458
2831 1 7.33674 11.1333 3.10347
2835 1 5.80773 10.2267 5.56353
1434 2 7.30216 9.37232 4.3368
2849 1 8.79914 10.2265 5.57342
2845 1 10.2683 11.0663 3.13922
1448 2 10.3023 9.36739 4.33233
2863 1 11.7896 10.2175 5.58465
2859 1 13.2919 11.1133 3.17879
1462 2 13.3002 9.36348 4.34548
2877 1 14.7839 10.2146 5.56407
2873 5 16.264 11.1088 3.1797
1476 2 16.2781 9.36427 4.34538
2887 1 19.308 11.1367 3.1192
2891 1 17.7723 10.213 5.56654
1490 2 19.2611 9.36418 4.3579
2901 1 22.2482 11.0371 3.12367
2905 1 20.7657 10.1838 5.59051
1504 2 22.2366 9.41532 4.29961
2919 1 23.7051 10.1772 5.61866
2915 1 25.1577 11.0692 3.1586
1518 2 25.2116 9.35517 4.36009
2933 1 26.7017 10.2091 5.5904
2929 1 28.1918 11.1189 3.18257
1532 2 28.1953 9.36552 4.34016
2805 2 -0.16436 11.9493 4.35952
2804 1 -0.188292 13.6423 3.13425
2806 2 1.33063 14.5231 4.35463
2808 1 1.32711 12.8087 5.58012
2819 2 2.81947 11.9446 4.35603
2818 1 2.81244 13.663 3.16595
2820 2 4.24736 14.48 4.29039
2822 1 4.33755 12.8307 5.57252
2833 2 5.80556 11.9563 4.34458
2832 1 5.85615 13.7027 3.14389
2834 2 7.37193 14.4933 4.32188
2836 1 7.28514 12.8324 5.58451
2847 2 8.80168 11.9548 4.36019
2846 1 8.78092 13.6594 3.1522
2848 2 10.296 14.5407 4.38121
2850 1 10.2921 12.8048 5.59698
2861 2 11.7919 11.9519 4.36499
2860 1 11.7817 13.6811 3.20457
2862 2 13.2861 14.5454 4.38965
2864 1 13.2897 12.808 5.58246
2875 2 14.7814 11.9605 4.35764
2874 1 14.779 13.7589 3.16153
2876 2 16.2796 14.5454 4.39893
2878 1 16.2745 12.8097 5.58286
2888 1 17.8227 13.7082 3.14224
2889 2 17.7684 11.9536 4.36136
2890 2 19.2681 14.5447 4.40797
2892 1 19.2609 12.8006 5.60958
2903 2 20.7595 11.9489 4.3803
2902 1 20.7337 13.6729 3.18786
2904 2 22.2472 14.5426 4.4127
2906 1 22.2435 12.7923 5.61767
2917 2 23.7246 11.9419 4.38498
2916 1 23.7309 13.7038 3.22199
2918 2 25.2233 14.5432 4.41035
2920 1 25.2221 12.7939 5.59879
2931 2 26.7036 11.9489 4.3714
2930 1 26.6944 13.6848 3.21106
2932 2 28.2022 14.5493 4.39905
2934 1 28.2062 12.8039 5.58967
4205 2 -0.176162 17.0884 4.33881
4207 1 -0.194284 15.3835 5.55047
4203 5 1.33975 16.2188 3.17345
4217 1 4.38075 16.2511 3.14479
4219 2 2.83619 17.0865 4.35227
4221 1 2.85301 15.3762 5.55737
4233 2 5.82005 17.169 4.32335
4235 1 5.81343 15.377 5.50412
4231 1 7.26569 16.2184 3.20399
4247 2 8.80004 17.112 4.38444
4249 1 8.771 15.386 5.60408
4245 1 10.2959 16.3222 3.17632
4259 1 13.3373 16.2837 3.17018
4261 2 11.7984 17.1162 4.4065
4263 1 11.7896 15.3953 5.61968
4273 1 16.3023 16.2743 3.15945
4275 2 14.7888 17.1284 4.42883
4277 1 14.7795 15.4021 5.65303
4289 2 17.7749 17.1349 4.4297
4291 1 17.7696 15.4017 5.66361
4287 1 19.2285 16.2572 3.21133
4303 2 20.7527 17.1292 4.41957
4305 1 20.7512 15.3988 5.64485
4301 1 22.248 16.2717 3.24201
4317 2 23.7391 17.1262 4.42259
4319 1 23.742 15.3968 5.64567
4315 1 25.2222 16.2727 3.23922
4331 2 26.7205 17.1304 4.4231
4333 1 26.7203 15.4077 5.64372
4329 1 28.2297 16.2543 3.20058
5607 1 -0.156599 20.5263 5.55005
4206 2 1.34078 19.6598 4.32712
4208 1 1.32738 17.9547 5.56569
4218 1 2.88459 18.8133 3.10337
5621 1 2.84086 20.5292 5.56712
4220 2 4.33529 19.6704 4.35538
4222 1 4.33781 17.9255 5.6003
5635 1 5.83048 20.5373 5.56562
4232 1 5.79276 18.7992 3.14995
4234 2 7.32613 19.6837 4.36807
4236 1 7.29953 17.936 5.60127
4246 1 8.85417 18.8609 3.14611
5649 1 8.80737 20.5459 5.61821
4248 2 10.3149 19.6946 4.40818
4250 1 10.2954 17.9707 5.62414
4260 1 11.8308 18.828 3.15368
5663 1 11.8002 20.5595 5.66366
4262 2 13.3019 19.7085 4.42993
4264 1 13.2859 17.9817 5.6671
4274 1 14.7886 18.8147 3.1945
4288 1 17.7169 18.8959 3.19415
5677 1 14.807 20.6073 5.63712
4276 2 16.2763 19.7344 4.43845
4278 1 16.2794 17.9951 5.65648
5691 1 17.751 20.6092 5.6866
4290 2 19.254 19.7185 4.44586
4292 1 19.2599 17.9859 5.65902
5705 1 20.7504 20.5826 5.68199
4302 1 20.7452 18.9053 3.22336
4304 2 22.2453 19.7124 4.43685
4306 1 22.2456 17.9824 5.63517
5719 1 23.7423 20.5733 5.68401
4316 1 23.7456 18.894 3.21464
4318 2 25.232 19.7129 4.43309
4320 1 25.2329 17.9837 5.65664
5733 1 26.762 20.5767 5.63551
4330 1 26.7214 18.8453 3.23666
4332 2 28.1549 19.6792 4.36842
4334 1 28.2314 18.0219 5.62909
5605 2 -0.143348 22.2537 4.30524
5603 1 1.40199 21.3493 3.1095
5608 1 1.34642 23.1149 5.53232
5619 2 2.84522 22.2571 4.33019
5617 1 4.29366 21.3798 3.13612
5622 1 4.33983 23.1271 5.57693
5631 1 7.39334 21.4394 3.12713
5633 2 5.83999 22.2675 4.35394
5636 1 7.3228 23.1368 5.63067
5645 1 10.3384 21.3799 3.1749
5647 2 8.83223 22.2803 4.40065
5650 1 10.3133 23.1419 5.64845
5661 2 11.8089 22.2874 4.42552
5659 1 13.2454 21.405 3.1993
5664 1 13.3385 23.1461 5.63333
5675 2 14.7179 22.2541 4.34875
5673 1 16.3269 21.4488 3.25239
5678 1 16.2678 23.1377 5.50412
5687 1 19.258 21.4404 3.17181
5689 2 17.8281 22.2738 4.38575
5692 1 19.2269 23.1576 5.66804
5701 1 22.2466 21.3923 3.19658
5703 2 20.7494 22.3021 4.44322
5706 1 22.2486 23.1574 5.64704
5717 2 23.7391 22.2971 4.42671
5715 1 25.1764 21.4048 3.21045
5720 1 25.242 23.1482 5.64009
5731 2 26.7294 22.2892 4.41686
5729 5 28.208 21.4169 3.26387
5734 1 28.2407 23.1219 5.65055
7003 1 1.37076 26.5608 3.08845
7007 1 -0.147477 25.7085 5.55927
5604 1 -0.146963 24.0438 3.10063
5606 2 1.35323 24.8454 4.33183
7017 1 4.35353 26.5549 3.10566
7021 1 2.84172 25.7102 5.57872
5618 5 2.858 24.0439 3.12236
5620 2 4.34726 24.8454 4.35556
5632 1 5.90698 24.0117 3.11944
7031 1 7.30003 26.6079 3.14607
7035 1 5.829 25.7154 5.60033
5634 2 7.34014 24.8602 4.38493
7049 1 8.81907 25.7222 5.61049
5646 1 8.81166 23.9821 3.19273
7045 1 10.3326 26.6572 3.18753
5648 2 10.3204 24.8692 4.40493
7063 1 11.8021 25.7256 5.63176
5660 1 11.8073 24.0116 3.24529
7059 1 13.3588 26.5433 3.20676
5662 2 13.3122 24.8613 4.42611
7073 1 16.2864 26.5983 3.17333
7077 1 14.8052 25.7003 5.66175
5674 5 14.8142 24.0508 3.23566
5676 2 16.2873 24.9423 4.3808
7087 1 19.2299 26.6385 3.20838
5688 1 17.8031 24.0536 3.22383
7091 1 17.7565 25.7078 5.68976
5690 2 19.258 24.8827 4.4499
5702 1 20.7011 23.9911 3.23191
7105 1 20.7544 25.7475 5.66462
7101 1 22.3065 26.572 3.23233
5704 2 22.2523 24.8848 4.43768
7115 1 25.2534 26.6245 3.18544
7119 1 23.7479 25.7496 5.68833
5716 1 23.7435 24.0863 3.22114
5718 2 25.2377 24.8813 4.43273
7129 1 28.2162 26.5829 3.16842
7133 1 26.7378 25.7281 5.6559
5730 1 26.7264 24.068 3.20741
5732 2 28.2238 24.8607 4.42187
7004 1 -0.104871 29.1137 3.07317
7005 2 -0.132671 27.4356 4.33558
7008 1 1.34513 28.3102 5.58035
7018 1 2.85611 29.1071 3.08621
7019 2 2.8494 27.4363 4.35646
7022 1 4.32843 28.317 5.60219
7032 1 5.81466 29.1197 3.11958
7033 2 5.82848 27.4436 4.3777
7036 1 7.31422 28.3199 5.62084
7046 1 8.79792 29.167 3.12823
7047 2 8.81814 27.451 4.39628
7050 1 10.2964 28.316 5.65098
7060 1 11.7565 29.1928 3.1733
7061 2 11.8063 27.4532 4.40693
7064 1 13.2888 28.3076 5.63244
7074 1 14.8247 29.1823 3.19134
7075 2 14.7867 27.4428 4.43232
7078 1 16.2711 28.3103 5.66579
7088 1 17.76 29.185 3.19345
7102 1 20.701 29.1916 3.19021
7089 2 17.7701 27.4565 4.45638
7092 1 19.2585 28.3193 5.68752
7103 2 20.7583 27.4626 4.43625
7106 1 22.2541 28.3281 5.6625
7116 1 23.8021 29.1886 3.21342
7117 2 23.7519 27.4646 4.44448
7120 1 25.2602 28.3306 5.63623
7131 2 26.7395 27.3635 4.48519
7130 1 26.7221 29.1737 3.092
7134 1 28.2225 28.3211 5.62165
11 1 -0.101861 1.56615 8.0112
13 3 -0.139359 -0.136533 8.98126
9 2 1.34603 0.717964 6.75735
14 3 1.36177 2.42868 8.99242
25 1 2.84644 1.62596 7.99638
27 7 2.82648 -0.144249 8.97177
23 2 4.32581 0.708993 6.74541
28 3 4.33933 2.42787 8.98441
39 1 5.77498 1.52497 7.99747
41 3 5.82825 -0.186208 8.95973
37 2 7.31598 0.712012 6.73957
42 7 7.30691 2.44263 8.97177
53 1 8.80787 1.50283 7.95927
55 3 8.81475 -0.177772 8.95273
51 2 10.306 0.717486 6.73064
56 7 10.2939 2.44263 8.97177
67 1 11.8363 1.54438 7.97408
69 7 11.8122 -0.160281 8.94621
65 2 13.2968 0.716355 6.71792
70 3 13.3018 2.38371 8.96733
81 1 14.7689 1.5387 7.9795
83 3 14.765 -0.169252 8.94771
79 2 16.2965 0.723094 6.74293
84 7 16.2678 2.44263 8.97177
95 1 17.8467 1.61669 7.96317
97 7 17.7612 -0.144249 8.97177
93 2 19.2808 0.723021 6.73851
98 3 19.3075 2.42846 8.97201
109 1 20.7343 1.5774 7.95099
111 7 20.7482 -0.144249 8.97177
107 2 22.26 0.697998 6.71302
112 7 22.2417 2.44263 8.97177
123 1 23.7363 1.53382 7.90038
125 3 23.7351 -0.144249 8.97177
121 2 25.1583 0.727501 6.74706
126 7 25.2286 2.44263 8.97177
137 1 26.7032 1.52593 7.87454
139 7 26.7221 -0.144249 8.97177
135 2 28.2495 0.74649 6.7613
140 7 28.2156 2.44263 8.97177
1413 3 -0.160468 5.02951 8.97177
10 2 -0.162002 3.30755 6.77621
12 1 1.32748 4.10519 7.99408
1427 7 2.82648 5.02951 8.97177
24 2 2.83496 3.31338 6.77191
26 1 4.38648 4.13745 8.02136
1441 3 5.84224 5.02148 8.99517
38 2 5.82993 3.29959 6.77117
40 1 7.32962 4.21472 8.00591
1455 3 8.80882 5.04282 8.99258
52 2 8.80401 3.30698 6.76609
54 1 10.2412 4.18799 7.9796
1469 7 11.7873 5.02951 8.97177
66 2 11.7951 3.30028 6.76425
68 1 13.2917 4.07558 7.9885
1483 3 14.7743 5.02951 8.97177
80 2 14.7904 3.29724 6.75661
82 1 16.2814 4.16878 7.94635
1497 7 17.7612 5.02951 8.97177
94 2 17.7865 3.31553 6.76624
96 1 19.3318 4.14134 8.01872
1511 3 20.7968 5.0108 8.99246
108 2 20.777 3.30516 6.75764
110 1 22.2845 4.19746 8.00759
1525 3 23.7642 5.05164 8.97489
122 2 23.746 3.29235 6.74019
124 1 25.2237 4.18927 7.98745
1539 3 26.6978 5.02896 8.97537
136 2 26.7034 3.27986 6.73726
138 1 28.1681 4.1775 7.9922
1553 3 29.6353 5.01126 8.98966
1411 1 -0.121743 6.76845 7.9991
1410 2 -0.171359 8.48289 6.79567
1409 2 1.32932 5.89843 6.7859
1414 3 1.30868 7.6208 9.01341
1425 1 2.76314 6.79814 8.00463
1424 2 2.81928 8.49217 6.79398
1423 2 4.31426 5.89372 6.78896
1428 7 4.31996 7.6164 8.97177
1439 1 5.79469 6.69756 7.99491
1438 2 5.80785 8.48572 6.7886
1437 2 7.30701 5.90319 6.77064
1442 7 7.30691 7.6164 8.97177
1453 1 8.83992 6.73634 8.00709
1452 2 8.79363 8.48837 6.78428
1451 2 10.3 5.90157 6.76912
1456 3 10.2836 7.61035 9.00324
1467 1 11.7488 6.79727 8.00109
1466 2 11.7926 8.49433 6.80431
1465 2 13.2865 5.88667 6.79344
1470 3 13.2808 7.6164 8.97177
1481 1 14.7759 6.72474 7.97133
1480 2 14.7904 8.48012 6.80692
1479 2 16.2768 5.89056 6.78126
1484 7 16.2678 7.6164 8.97177
1495 5 17.7626 6.74054 7.97127
1494 2 17.7686 8.4765 6.80447
1493 2 19.2756 5.89389 6.78949
1498 7 19.2547 7.6164 8.97177
1508 2 20.6743 8.52029 6.88321
1509 1 20.7658 6.68499 7.98879
1507 2 22.2534 5.82725 6.82628
1512 7 22.2417 7.6164 8.97177
1523 1 23.7535 6.74028 7.97957
1522 2 23.7738 8.50709 6.86944
1521 2 25.212 5.88887 6.74655
1526 3 25.2119 7.56228 9.00098
1537 1 26.7095 6.74835 8.01811
1536 2 26.7031 8.47325 6.79117
1535 2 28.1889 5.88086 6.75897
1540 3 28.1985 7.57958 9.00581
1551 1 29.6529 6.71242 8.0179
2813 3 -0.178993 10.1953 9.02479
2809 2 1.33258 11.0737 6.80525
1412 1 1.28187 9.32503 8.04536
2827 3 2.82648 10.2033 8.97177
2823 2 4.31821 11.0802 6.79199
1426 1 4.32779 9.34927 7.96595
2841 7 5.81343 10.2033 8.97177
2837 2 7.29809 11.0768 6.79827
1440 1 7.32961 9.36048 7.99885
2855 3 8.77512 10.187 9.01389
2851 2 10.2968 11.0761 6.81838
1454 1 10.2471 9.32268 8.04434
2869 7 11.7873 10.2033 8.97177
2865 2 13.2911 11.0741 6.80811
1468 1 13.3607 9.36884 8.02505
2883 3 14.8032 10.2176 9.03212
2879 2 16.2751 11.073 6.80261
1482 1 16.282 9.38155 8.05186
2897 3 17.7547 10.2205 9.0423
2893 2 19.2564 11.0674 6.81324
1496 1 19.2298 9.37341 8.06091
2911 3 20.7105 10.2005 9.04351
2907 2 22.2351 11.0593 6.83743
1510 1 22.1498 9.3571 8.02553
2925 7 23.7351 10.2033 8.97177
2921 2 25.2209 11.0568 6.8296
1524 1 25.2094 9.25779 8.03269
2939 7 26.7221 10.2033 8.97177
2935 2 28.1978 11.0586 6.81403
1538 1 28.2606 9.29356 8.04891
2811 1 -0.147943 11.8725 8.02608
2810 2 -0.167976 13.6665 6.80557
2812 1 1.31 14.5749 8.0326
2814 7 1.33301 12.7902 8.97177
2825 1 2.83957 11.9339 7.97193
2824 2 2.82301 13.6643 6.7936
2826 1 4.25668 14.5561 7.99845
2828 7 4.31996 12.7902 8.97177
2839 1 5.83668 11.9555 8.02388
2838 2 5.80497 13.5918 6.86847
2840 1 7.2806 14.4539 8.01288
2842 3 7.29529 12.7814 9.02098
2853 1 8.75793 11.9003 8.05579
2852 2 8.78802 13.6577 6.8164
2854 1 10.2778 14.5144 8.00323
2856 7 10.2939 12.7902 8.97177
2867 1 11.8388 11.961 8.02926
2866 2 11.787 13.6622 6.82669
2868 1 13.27 14.4684 8.05987
2870 3 13.2899 12.7824 9.04292
2881 1 14.7777 11.9345 8.0706
2880 2 14.7779 13.6632 6.8361
2882 1 16.2712 14.4511 8.07372
2884 3 16.2664 12.7647 9.05706
2895 1 17.7563 11.9328 8.07379
2894 2 17.7676 13.6594 6.84619
2896 1 19.2716 14.4498 8.08167
2898 3 19.2496 12.7566 9.05665
2909 1 20.7144 11.9016 8.07092
2908 2 20.7554 13.6527 6.84949
2910 1 22.2467 14.5093 8.03296
2912 7 22.2417 12.7902 8.97177
2923 1 23.8006 11.9441 8.05372
2922 2 23.7393 13.6534 6.84726
2924 1 25.2254 14.4706 8.06752
2926 3 25.246 12.7896 9.05705
2937 1 26.7171 11.9594 8.06331
2936 2 26.7185 13.6596 6.84079
2938 1 28.2161 14.4538 8.06619
2940 3 28.2018 12.7714 9.05473
4213 3 -0.180671 15.4036 9.00478
4209 2 1.323 16.2427 6.78253
4225 1 2.82339 17.0514 8.01156
4227 3 2.80538 15.3792 9.01275
4223 2 4.25877 16.257 6.84744
4239 1 5.82318 17.0551 7.96085
4241 3 5.81343 15.377 8.97177
4237 2 7.37517 16.2647 6.8787
4253 1 8.82773 17.108 8.05307
4255 3 8.80039 15.377 8.97177
4251 2 10.2864 16.2418 6.83832
4267 1 11.7271 17.1377 8.0819
4269 7 11.7873 15.377 8.97177
4265 2 13.2782 16.2514 6.88056
4281 1 14.8176 17.126 8.09293
4283 7 14.7743 15.377 8.97177
4279 2 16.273 16.2554 6.88533
4295 1 17.7142 17.1484 8.10569
4297 7 17.7612 15.377 8.97177
4293 2 19.2592 16.2523 6.8945
4309 1 20.7941 17.1298 8.09378
4311 7 20.7482 15.377 8.97177
4307 2 22.2464 16.2505 6.86934
4323 1 23.701 17.1324 8.0897
4325 3 23.7351 15.377 8.97177
4321 2 25.2358 16.2569 6.88338
4337 1 26.7875 17.1481 8.08204
4339 7 26.7221 15.377 8.97177
4335 2 28.2179 16.2627 6.86821
4351 1 29.6697 17.1359 8.08796
5613 7 -0.160468 20.5508 8.97177
4210 2 -0.164508 18.812 6.77562
4212 1 1.40104 19.6974 7.9986
4214 7 1.33301 17.9639 8.97177
5627 3 2.82924 20.5571 9.01338
4224 2 2.83871 18.8132 6.79987
4226 1 4.32266 19.7232 8.05081
4228 7 4.31996 17.9639 8.97177
5641 3 5.79562 20.5576 9.04208
4238 2 5.81426 18.802 6.81409
4240 1 7.27659 19.7131 8.07116
4242 7 7.30691 17.9639 8.97177
5655 3 8.75891 20.5248 9.06605
4252 2 8.78693 18.8175 6.84108
4254 1 10.2368 19.663 8.10556
4256 3 10.2577 17.9579 9.07238
5669 7 11.7873 20.5508 8.97177
4266 2 11.7856 18.8379 6.87928
4268 1 13.3306 19.7281 8.08533
4270 3 13.2808 17.9639 8.97177
5683 3 14.7661 20.5739 9.09757
4280 2 14.7798 18.848 6.8783
4282 1 16.2341 19.6917 8.13961
4284 3 16.2534 17.9806 9.0993
5697 7 17.7612 20.5508 8.97177
4294 2 17.7667 18.8555 6.88847
4296 1 19.2568 19.7082 8.0662
4298 3 19.2547 17.9639 8.97177
5711 7 20.7482 20.5508 8.97177
4308 2 20.7526 18.8414 6.88499
4310 1 22.2507 19.6365 8.1038
4312 3 22.2485 17.9579 9.09646
5725 7 23.7351 20.5508 8.97177
4322 2 23.7447 18.8394 6.88782
4324 1 25.302 19.7306 8.09048
4326 3 25.2286 17.9639 8.97177
5739 3 26.7573 20.5647 9.08687
4336 2 26.7416 18.855 6.86328
4338 1 28.2442 19.7366 8.09172
4340 3 28.2304 18.0218 9.06431
5611 1 -0.148468 22.3016 8.00358
5609 2 1.33979 21.3943 6.77883
5614 7 1.31978 23.1217 9.01163
5625 1 2.77861 22.2509 8.02846
5623 2 4.32877 21.4052 6.80049
5628 7 4.31996 23.1377 8.97177
5639 1 5.80962 22.22 8.02416
5637 2 7.31009 21.4032 6.83239
5642 7 7.30691 23.1377 8.97177
5653 1 8.81132 22.2028 8.06991
5651 2 10.3044 21.4095 6.87206
5656 7 10.2939 23.1377 8.97177
5667 1 11.851 22.3151 8.07936
5665 2 13.3038 21.4296 6.86774
5670 3 13.311 23.1285 9.0861
5681 1 14.7704 22.2635 8.0985
5679 2 16.2822 21.3611 6.96472
5684 7 16.2678 23.1377 8.97177
5695 1 17.8256 22.344 8.09881
5693 2 19.2606 21.4434 6.89769
5698 3 19.2775 23.1684 9.11135
5709 1 20.7682 22.3449 8.1389
5707 2 22.2489 21.432 6.90332
5712 3 22.2496 23.1875 9.11233
5723 1 23.7311 22.35 8.13568
5721 2 25.2382 21.4294 6.88107
5726 3 25.2364 23.1498 9.1087
5737 1 26.6894 22.2716 8.12359
5735 2 28.1546 21.4857 6.93789
5740 7 28.2156 23.1377 8.97177
7013 3 -0.155344 25.6751 9.00166
5610 2 -0.150058 23.9815 6.77226
7009 2 1.33783 26.5709 6.79882
5612 1 1.35539 24.8419 8.05222
7027 3 2.83276 25.7129 9.02399
5624 2 2.84308 23.984 6.79538
7023 2 4.32647 26.5866 6.8195
5626 1 4.33863 24.9042 8.06066
7041 3 5.81073 25.7487 9.04633
5638 2 5.82411 23.9936 6.83414
7037 2 7.31087 26.594 6.84009
5640 1 7.30909 24.912 8.09277
7055 3 8.78702 25.7536 9.07265
5652 2 8.80956 23.9976 6.8672
7051 2 10.2961 26.5959 6.86247
5654 1 10.2848 24.9233 8.11369
7069 7 11.787 25.7301 9.08969
5666 2 11.8006 24.0029 6.86605
7065 2 13.2908 26.5866 6.86679
5668 1 13.2794 24.8579 8.1415
5680 2 14.7268 24.0402 6.94194
7083 3 14.7635 25.7312 9.09931
7079 2 16.2713 26.5867 6.89424
5682 1 16.2075 24.8871 8.09078
7097 7 17.7612 25.7246 8.97177
5694 2 17.8301 24.0532 6.96162
7093 2 19.2587 26.6028 6.90365
5696 1 19.2622 24.8472 8.11863
7111 7 20.7482 25.7246 8.97177
5708 2 20.756 24.0255 6.88802
7107 2 22.2557 26.6141 6.89913
5710 1 22.2523 24.8541 8.10021
7125 7 23.7351 25.7246 8.97177
5722 2 23.7449 24.0249 6.88897
7121 2 25.2421 26.6092 6.89103
5724 1 25.2866 24.8489 8.12936
7139 3 26.7406 25.7362 9.09893
5736 2 26.7431 24.0099 6.87789
7135 2 28.2424 26.6075 6.87431
5738 1 28.1946 24.9185 8.08581
7011 1 -0.177606 27.3592 8.01146
7010 2 -0.153398 29.1723 6.78023
7014 7 1.33301 28.3115 8.97177
7025 1 2.81679 27.3887 8.02416
7024 2 2.81827 29.1798 6.80126
7028 7 4.31996 28.3115 8.97177
7039 1 5.80556 27.4213 8.04299
7038 2 5.803 29.1865 6.8297
7042 7 7.30691 28.3115 8.97177
7053 1 8.78974 27.4217 8.06303
7052 2 8.79354 29.1844 6.85899
7056 7 10.2939 28.3115 8.97177
7067 1 11.8269 27.4261 8.10643
7066 2 11.7808 29.1707 6.87613
7070 3 13.2717 28.3009 9.10213
7081 1 14.7729 27.4557 8.14554
7080 2 14.7748 29.1787 6.88797
7084 3 16.2577 28.319 9.10907
7095 1 17.7219 27.4924 8.11783
7094 2 17.765 29.1864 6.90565
7098 7 19.2547 28.3115 8.97177
7109 1 20.7633 27.458 8.07114
7108 2 20.7592 29.1925 6.89189
7112 3 22.2417 28.3115 8.97177
7123 1 23.8046 27.5294 8.10647
7122 2 23.7614 29.1996 6.89366
7126 3 25.2814 28.3386 9.09462
7136 2 26.7587 29.1822 6.85911
7140 7 28.2156 28.3115 8.97177
7137 1 26.7152 27.432 8.11219
8401 7 -0.160468 30.8983 2.03646
8415 7 2.82648 30.8983 2.03646
8429 7 5.81343 30.8983 2.03646
8443 3 8.86516 30.8917 2.17873
8457 7 11.8028 30.8877 2.18701
8471 3 14.7784 30.8755 2.20658
8485 7 17.741 30.8877 2.20471
8499 3 20.7255 30.8882 2.2032
8513 3 23.7618 30.8595 2.19192
8527 3 26.6838 30.9588 2.131
8402 3 1.35303 33.4811 2.05983
8404 1 -0.142952 34.3621 2.9903
8416 7 4.31996 33.4852 2.03646
8430 7 7.30691 33.4852 2.03646
8444 3 10.2947 33.4353 2.13231
8458 7 13.2808 33.4852 2.03646
8472 7 16.2678 33.4852 2.03646
8486 3 19.2532 33.4782 2.17641
8500 3 22.2407 33.4441 2.17498
8514 7 25.2286 33.4852 2.03646
8528 3 28.1983 33.4256 2.14311
9801 3 -0.132633 36.0894 2.03805
9802 7 1.45028 38.5763 1.97586
9803 1 1.31088 36.9578 3.03902
9815 7 2.82648 36.0721 2.03646
9816 3 4.35111 38.6283 2.05052
9817 1 4.41223 36.933 3.03266
9829 3 5.87971 36.0452 2.07842
9830 7 7.30691 38.659 2.03646
9831 1 7.36986 36.8535 3.06209
9843 3 8.87345 36.0148 2.11629
9844 3 10.3436 38.5962 2.11321
9857 3 11.8016 36.1363 2.09195
9858 3 13.2924 38.5749 2.12553
9871 7 14.7743 36.0721 2.03646
9872 3 16.2735 38.6022 2.13117
9885 3 17.7992 36.044 2.15338
9886 7 19.2547 38.659 2.03646
9899 3 20.7371 36.0258 2.15255
9900 7 22.2417 38.659 2.03646
9913 7 23.7351 36.0721 2.03646
9914 3 25.2374 38.6574 2.13121
9927 7 26.7221 36.0721 2.03646
9928 7 28.2156 38.659 2.03646
11201 3 -0.143429 41.2534 2.01798
11215 7 2.82648 41.2459 2.03646
9818 1 2.8465 39.4475 3.00877
11229 3 5.81343 41.2459 2.03646
9832 1 5.78611 39.4983 3.0487
11243 7 8.80039 41.2459 2.03646
11257 7 11.7873 41.2459 2.03646
11271 7 14.7743 41.2459 2.03646
11285 7 17.7612 41.2459 2.03646
11299 3 20.7922 41.2575 2.11186
11313 3 23.7658 41.219 2.12286
11327 7 26.7221 41.2459 2.03646
11202 7 1.33301 43.8327 2.03646
11204 1 -0.150046 44.695 3.03804
11203 1 1.29923 42.0557 3.02385
11216 7 4.31996 43.8327 2.03646
11218 1 2.84894 44.7563 3.00375
11217 1 4.33821 42.1169 3.06287
11230 3 7.30691 43.8327 2.03646
11244 7 10.2939 43.8327 2.03646
11258 3 13.3124 43.8353 2.07983
11260 1 11.8487 44.7075 3.04842
11272 7 16.2678 43.8327 2.03646
11286 3 19.3118 43.861 2.09613
11300 7 22.2417 43.8327 2.03646
11314 7 25.2286 43.8327 2.03646
11328 7 28.2156 43.8327 2.03646
12601 3 -0.160468 46.4196 2.03646
12603 1 1.38027 47.261 3.01494
12615 3 2.83739 46.4384 2.01227
12617 1 4.2983 47.297 2.9974
12629 7 5.81343 46.4196 2.03646
12631 1 7.3371 47.322 3.03832
12643 7 8.80039 46.4196 2.03646
12645 1 10.3813 47.2376 3.04195
12657 3 11.845 46.4 2.05901
12671 7 14.7743 46.4196 2.03646
12685 3 17.8216 46.3987 2.0849
12699 3 20.757 46.4376 2.09233
12701 1 22.2265 47.3153 3.0574
12713 7 23.7351 46.4196 2.03646
12727 3 26.7778 46.438 2.11475
12729 1 28.2611 47.3205 3.06352
12602 7 1.33301 49.0065 2.03646
12604 1 -0.133036 49.8692 3.04829
12616 3 4.33658 48.9935 2.01583
12618 1 2.89877 49.8603 3.0125
12630 3 7.30859 48.9885 2.02595
12632 1 5.82174 49.8245 2.99254
12646 1 8.75227 49.8379 3.02793
12644 7 10.2939 49.0065 2.03646
12658 7 13.2808 49.0065 2.03646
12660 1 11.8048 49.938 3.051
12672 7 16.2678 49.0065 2.03646
12686 7 19.2547 49.0065 2.03646
12700 3 22.259 49.022 2.08908
12714 7 25.2286 49.0065 2.03646
12728 3 28.2459 49.0585 2.12545
14001 3 -0.160468 51.5934 2.03646
14003 1 1.33769 52.4461 3.05683
14015 7 2.82648 51.5934 2.03646
14017 1 4.32995 52.5484 3.01225
14029 7 5.81343 51.5934 2.03646
14043 7 8.80039 51.5934 2.03646
14045 1 10.357 52.443 3.04351
14057 3 11.8136 51.6106 2.04893
14059 1 13.2595 52.4407 3.06121
14071 7 14.7743 51.5934 2.03646
14085 3 17.7887 51.6065 2.07512
14099 7 20.7482 51.5934 2.03646
14113 3 23.7954 51.5953 2.10938
14127 3 26.6705 51.5538 2.0754
15401 3 -0.18319 56.7632 2.00713
14002 7 1.33301 54.1803 2.03646
15415 7 2.84297 56.7545 2.01632
14016 3 4.32833 54.2303 2.01868
14018 1 2.85367 55.0617 3.0052
15429 3 5.79764 56.7688 2.03102
14030 7 7.30691 54.1803 2.03646
14032 1 5.7896 55.0733 3.01554
14044 7 10.2939 54.1803 2.03646
14046 1 8.82156 55.1288 3.03644
15457 7 11.7873 56.7672 2.03646
14058 7 13.2808 54.1803 2.03646
15471 3 14.7743 56.7672 2.03646
14072 3 16.2678 54.1803 2.03646
15485 3 17.7612 56.7672 2.03646
14086 7 19.2547 54.1803 2.03646
15499 7 20.7482 56.7672 2.03646
14100 7 22.2417 54.1803 2.03646
15513 7 23.7351 56.7672 2.03646
14114 7 25.2286 54.1803 2.03646
15527 3 26.758 56.749 2.1151
14128 7 28.244 54.2824 2.08269
15402 3 1.32436 59.3333 2.01245
15403 1 1.32922 57.6031 2.95596
15416 7 4.31996 59.354 2.03646
15417 1 4.31153 57.5891 3.01299
15430 3 7.30837 59.3575 2.04566
15431 1 7.28304 57.6342 2.99986
15443 3 8.79491 56.8118 2.04409
15444 3 10.2642 59.3835 2.04663