ITEM: TIMESTEP
0
ITEM: NUMBER OF ATOMS
81200
ITEM: BOX BOUNDS pp pp pp
-2.7790931416220399e-01 2.9857740521018684e+02
-2.9881909308167531e-01 2.9994653106724803e+02
0.0000000000000000e+00 4.9031656433928198e+01
ITEM: ATOMS id type x y z
1 3 -0.260873 -0.150694 2.02873
2 3 1.25097 2.38546 2.05661
3 1 1.20481 0.684869 3.02893
15 7 2.748 -0.227739 2.03646
16 3 4.24026 2.38851 2.05871
17 1 4.24684 0.714157 3.05987
29 7 5.73655 -0.227739 2.03646
30 3 7.25079 2.37285 2.05996
31 1 7.2801 0.668597 3.03065
43 3 8.75174 -0.172765 2.04294
44 3 10.193 2.38041 2.04986
45 1 10.2072 0.686701 3.03402
57 7 11.7137 -0.227739 2.03646
58 7 13.2079 2.36058 2.03646
59 1 13.286 0.609981 3.03652
71 3 14.7492 -0.213505 2.04079
72 7 16.1965 2.36058 2.03646
73 1 16.1734 0.639641 3.06254
85 7 17.6908 -0.227739 2.03646
86 3 19.1767 2.44437 2.0434
87 1 19.1945 0.762658 3.04131
99 7 20.6793 -0.227739 2.03646
100 7 22.1736 2.36058 2.03646
101 1 22.217 0.646214 3.06186
113 3 23.6676 -0.0646065 1.99901
114 3 25.1425 2.38272 1.99784
115 1 25.1264 0.729777 3.00428
127 7 26.6564 -0.227739 2.03646
128 7 28.1507 2.36058 2.03646
129 1 28.1713 0.622011 3.03636
1401 7 -0.240552 4.94891 2.03646
1415 7 2.748 4.94891 2.03646
18 1 2.74435 3.20162 3.03377
1429 3 5.73214 4.96473 2.06663
32 1 5.74779 3.23405 3.00684
1443 7 8.72511 4.94891 2.03646
46 1 8.72411 3.21262 3.04524
60 1 11.6514 3.21375 3.04806
1457 7 11.7137 4.94891 2.03646
1471 7 14.7022 4.94891 2.03646
1485 3 17.7064 4.99457 2.05378
88 1 17.717 3.29449 3.03739
102 1 20.6146 3.28352 3.03158
1499 3 20.6735 5.01573 2.11341
1513 7 23.6679 4.94891 2.03646
116 1 23.7465 3.22367 3.01882
130 1 26.5914 3.21477 3.00672
1527 7 26.6564 4.94891 2.03646
1402 7 1.25372 7.53723 2.03646
1416 7 4.24228 7.53723 2.03646
1430 7 7.23083 7.53723 2.03646
1431 1 7.17668 5.8181 3.06415
1444 7 10.2194 7.53723 2.03646
1446 1 8.71632 8.50129 3.06439
1458 3 13.2279 7.5406 2.07136
1472 3 16.1931 7.51809 2.05678
1474 1 14.7184 8.36555 3.04089
1473 1 16.2371 5.83065 3.05246
1488 1 17.6297 8.36436 3.0439
1486 3 19.1928 7.60074 2.14033
1487 1 19.1514 5.84894 3.03937
1500 7 22.1736 7.53723 2.03646
1502 1 20.6795 8.49847 3.05198
1514 3 25.145 7.60518 2.06616
1515 1 25.1294 5.91022 3.03345
1528 3 28.1433 7.54958 2.05425
1530 1 26.6603 8.3836 3.03702
1529 1 28.1668 5.84879 3.02731
2801 3 -0.258757 10.1877 2.11082
2803 1 1.29817 10.9427 3.03101
2815 3 2.7535 10.12 2.05548
2829 7 5.73655 10.1255 2.03646
2831 1 7.25578 11.0596 3.05062
2843 3 8.72066 10.1877 2.0802
2857 7 11.7137 10.1255 2.03646
2871 7 14.7022 10.1255 2.03646
2885 7 17.6908 10.1255 2.03646
2887 1 19.2358 11.1298 3.0209
2899 3 20.6767 10.1778 2.08808
2913 3 23.6597 10.1356 2.09659
2927 7 26.6564 10.1255 2.03646
2802 7 1.25372 12.7139 2.03646
2816 7 4.24228 12.7139 2.03646
2830 3 7.23166 12.7741 2.09585
2844 7 10.2194 12.7139 2.03646
2858 7 13.2079 12.7139 2.03646
2872 7 16.1965 12.7139 2.03646
2886 3 19.2296 12.8246 2.08138
2900 7 22.1736 12.7139 2.03646
2914 7 25.1621 12.7139 2.03646
2928 7 28.1507 12.7139 2.03646
4201 7 -0.240552 15.3022 2.03646
4215 7 2.748 15.3022 2.03646
4229 3 5.74954 15.3246 2.1074
4243 7 8.72511 15.3022 2.03646
4257 7 11.7137 15.3022 2.03646
4271 3 14.744 15.371 2.11685
4285 3 17.7253 15.3615 2.12793
4299 7 20.6793 15.3022 2.03646
4313 7 23.6679 15.3022 2.03646
4327 7 26.6564 15.3022 2.03646
5601 7 -0.240552 20.4788 2.03646
4202 7 1.25372 17.8905 2.03646
5615 3 2.77622 20.4525 2.07863
4216 3 4.26271 17.8701 2.09423
4218 1 2.79075 18.7485 3.04983
5629 7 5.73655 20.4788 2.03646
4230 7 7.23083 17.8905 2.03646
4246 1 8.68711 18.7564 3.04471
5643 3 8.7892 20.4909 2.13933
4244 3 10.2397 17.9594 2.15668
5657 3 11.7219 20.4754 2.15041
4258 3 13.2899 17.8932 2.09958
4260 1 11.8108 18.7308 3.05461
5671 7 14.7022 20.4788 2.03646
4272 3 16.2139 17.9295 2.14651
5685 3 17.6807 20.5329 2.16622
4286 7 19.185 17.8905 2.03646
5699 3 20.6845 20.5115 2.16787
4300 7 22.1736 17.8905 2.03646
5713 3 23.6555 20.4968 2.16211
4314 7 25.1621 17.8905 2.03646
5727 7 26.6564 20.4788 2.03646
4328 7 28.1507 17.8905 2.03646
5602 7 1.25372 23.0672 2.03646
5616 7 4.24228 23.0672 2.03646
5630 3 7.29687 23.0856 2.10966
5644 7 10.2194 23.0672 2.03646
5658 7 13.2079 23.0672 2.03646
5672 7 16.1965 23.0672 2.03646
5686 3 19.1727 23.1056 2.1763
5700 7 22.1736 23.0672 2.03646
5714 7 25.1621 23.0672 2.03646
5728 7 28.1507 23.0672 2.03646
7001 3 -0.206598 25.6689 2.07269
7003 1 1.28473 26.5009 3.0519
5604 1 -0.234574 23.9846 3.06237
7015 3 2.77842 25.6592 2.08244
7017 1 4.2679 26.4938 3.06401
7029 3 5.7748 25.66 2.10598
7043 7 8.72511 25.6555 2.03646
7057 7 11.7137 25.6555 2.03646
7071 3 14.7414 25.649 2.15797
7085 3 17.7148 25.6806 2.1748
7099 7 20.6793 25.6555 2.03646
7113 3 23.6895 25.6936 2.1749
7127 3 26.6281 25.6653 2.14202
7002 3 1.29032 28.2069 2.07264
7004 1 -0.191235 29.055 3.0436
7016 3 4.26293 28.2046 2.09209
7018 1 2.77071 29.0475 3.05141
7030 3 7.22838 28.2408 2.11303
7044 3 10.223 28.2682 2.13042
7058 7 13.2079 28.2438 2.03646
7072 3 16.2162 28.2576 2.16335
7086 3 19.16 28.2666 2.16611
7100 7 22.1736 28.2438 2.03646
7114 3 25.1044 28.2239 2.12984
7128 3 28.2564 28.1589 2.10855
5 2 -0.245263 1.52303 4.28507
7 1 -0.236929 -0.168951 5.47616
8 1 1.25679 2.3843 5.50845
19 2 2.75089 1.51703 4.27354
21 1 2.75105 -0.214132 5.49467
22 1 4.24661 2.37993 5.50674
33 2 5.7427 1.5141 4.27341
35 1 5.74556 -0.217698 5.47779
36 1 7.22998 2.38099 5.52738
47 2 8.73988 1.52537 4.29126
49 1 8.73272 -0.216234 5.49295
50 1 10.1997 2.37317 5.50406
61 2 11.7233 1.51062 4.24942
63 1 11.725 -0.211423 5.46417
64 1 13.2404 2.36111 5.4549
75 2 14.7091 1.51939 4.27466
77 1 14.7201 -0.213827 5.49458
78 1 16.2142 2.37709 5.50939
89 2 17.7019 1.53265 4.26751
91 1 17.7172 -0.208761 5.49647
92 1 19.1997 2.39108 5.5007
103 2 20.6863 1.54363 4.26129
105 1 20.6998 -0.211936 5.47604
106 1 22.1854 2.35628 5.50986
117 2 23.6716 1.51998 4.26183
119 1 23.6412 -0.249785 5.46515
120 1 25.1664 2.33623 5.48085
131 2 26.6346 1.58914 4.16082
133 5 26.6564 -0.227739 5.50412
134 1 28.1108 2.33875 5.44646
147 1 29.5857 -0.201966 5.43894
1407 1 -0.248317 4.97499 5.51716
4 1 -0.181139 3.2374 3.07299
6 2 1.25571 4.11748 4.28644
1421 1 2.74493 4.97311 5.51952
20 2 4.23947 4.10688 4.28068
1435 1 5.72972 4.96477 5.51118
34 2 7.22827 4.10989 4.27966
1449 1 8.71663 4.97548 5.49042
48 2 10.2103 4.11409 4.27462
1463 1 11.7168 4.99196 5.49677
62 2 13.2055 4.10595 4.26704
1477 1 14.699 4.96433 5.51266
74 1 14.6919 3.25365 3.10587
76 2 16.2051 4.11184 4.2971
1491 1 17.6724 4.96066 5.51479
90 2 19.1815 4.12176 4.29634
1505 1 20.7103 4.97791 5.5633
104 6 22.1736 4.08613 4.27785
1519 1 23.6676 4.99282 5.49496
118 2 25.1533 4.09964 4.24536
1533 1 26.6318 4.94779 5.45312
132 2 28.14 4.10186 4.24521
1547 1 29.5933 4.92796 5.46879
1405 2 -0.257153 6.70308 4.28354
1403 1 1.24176 5.8565 3.11439
1408 1 1.24421 7.56106 5.49874
1419 2 2.74257 6.69633 4.28342
1418 1 2.7505 8.45722 3.07461
1417 1 4.28396 5.80553 3.06981
1422 1 4.2314 7.55427 5.51844
1433 2 5.72952 6.69675 4.28765
1432 1 5.73146 8.42981 3.11493
1436 1 7.22186 7.56252 5.51244
1447 2 8.71483 6.70935 4.27297
1445 1 10.2042 5.85202 3.1087
1450 1 10.2123 7.56775 5.49736
1461 2 11.7142 6.68868 4.30013
1460 1 11.7879 8.39707 3.07305
1459 1 13.198 5.87267 3.08163
1464 1 13.2054 7.55623 5.54312
1475 2 14.7007 6.68581 4.29457
1478 1 16.1909 7.55893 5.5335
1489 2 17.6775 6.69728 4.31027
1492 1 19.1906 7.56912 5.61001
1503 6 20.6793 6.67445 4.27785
1501 1 22.1327 5.84966 3.10212
1506 5 22.1736 7.53723 5.50412
1517 2 23.7218 6.67749 4.22488
1516 1 23.6854 8.43928 3.07945
1520 1 25.0765 7.53214 5.47602
1531 2 26.6344 6.6914 4.25993
1534 1 28.1523 7.53933 5.48326
2807 1 -0.253436 10.1235 5.55024
1406 2 1.24781 9.27957 4.29198
2821 1 2.73839 10.1492 5.5388
2817 1 4.17681 10.981 3.07805
1420 2 4.23249 9.28436 4.296
2835 1 5.72615 10.1561 5.51305
1434 2 7.22071 9.29917 4.28906
2849 1 8.71797 10.1576 5.52226
2845 1 10.1867 10.9912 3.08498
1448 2 10.2201 9.29319 4.28406
2863 1 11.709 10.1473 5.53083
2859 1 13.2108 11.0365 3.12076
1462 2 13.2165 9.28715 4.29291
2877 1 14.706 10.1425 5.50613
2873 1 16.1878 11.0329 3.1218
1476 2 16.1897 9.28719 4.29177
2891 1 17.6795 10.1471 5.5292
1490 6 19.185 9.26278 4.27785
2901 1 22.1776 10.9759 3.06954
2905 1 20.7103 10.1209 5.56309
1504 2 22.1718 9.3517 4.24775
2919 1 23.6276 10.1054 5.56739
2915 1 25.0879 10.9956 3.11182
1518 2 25.1362 9.28343 4.30286
2933 1 26.6317 10.1584 5.52134
2929 1 28.1241 11.0449 3.13809
1532 2 28.1318 9.293 4.28512
2805 6 -0.240552 11.8511 4.27785
2806 2 1.24228 14.4572 4.31087
2808 1 1.26161 12.7513 5.5555
2819 2 2.7401 11.8704 4.30476
2818 1 2.7207 13.5894 3.11655
2820 2 4.15732 14.4068 4.23624
2822 1 4.25138 12.7576 5.5171
2833 2 5.7234 11.8832 4.29068
2832 1 5.7686 13.6286 3.0885
2834 2 7.28663 14.4208 4.2661
2836 1 7.2028 12.7632 5.52854
2847 2 8.72033 11.8842 4.30446
2846 1 8.69659 13.5888 3.09389
2848 2 10.2151 14.473 4.31885
2850 1 10.2125 12.7372 5.53711
2861 2 11.7119 11.8803 4.30584
2860 1 11.7018 13.61 3.14193
2862 2 13.2113 14.4738 4.32441
2864 1 13.2125 12.7383 5.51959
2875 2 14.705 11.887 4.29624
2874 1 14.7067 13.6837 3.09941
2876 2 16.2076 14.4753 4.33692
2878 1 16.2023 12.7373 5.51916
2888 1 17.7527 13.6465 3.07952
2889 2 17.6942 11.8876 4.30017
2890 2 19.1971 14.4805 4.35152
2892 1 19.187 12.7316 5.5507
2903 2 20.6867 11.8913 4.32192
2902 1 20.6675 13.6185 3.13203
2904 2 22.1783 14.4765 4.36176
2906 1 22.1682 12.7222 5.56426
2917 2 23.6525 11.872 4.3352
2916 1 23.6641 13.635 3.17351
2918 2 25.1544 14.4706 4.36375
2920 1 25.1503 12.719 5.55282
2931 2 26.6336 11.8624 4.33477
2930 1 26.626 13.6083 3.16723
2932 2 28.1226 14.4733 4.35653
2934 1 28.1372 12.7267 5.55012
2944 1 29.5697 13.6605 3.09548
4205 2 -0.257335 17.0279 4.30133
4203 1 1.24584 16.1492 3.12517
4219 2 2.74495 17.0145 4.29369
4221 1 2.76406 15.304 5.50523
4217 1 4.28697 16.1797 3.09252
4233 2 5.71979 17.0983 4.28121
4235 5 5.73655 15.3022 5.50412
4231 1 7.17155 16.1447 3.15361
4247 2 8.70442 17.0373 4.32705
4249 1 8.68893 15.3189 5.54386
4245 1 10.2119 16.2596 3.11819
4259 1 13.2697 16.2079 3.10117
4261 2 11.727 17.0443 4.34085
4263 1 11.7125 15.329 5.55266
4273 1 16.2327 16.2043 3.09958
4275 2 14.7183 17.0574 4.36491
4277 1 14.7052 15.3318 5.58864
4289 2 17.7042 17.0672 4.37285
4291 1 17.6968 15.3331 5.60465
4287 1 19.1594 16.1937 3.15697
4303 2 20.6832 17.0626 4.36771
4305 1 20.6796 15.3314 5.59212
4301 1 22.1817 16.2059 3.192
4317 2 23.6707 17.057 4.37426
4319 1 23.6719 15.3261 5.59727
4315 1 25.1552 16.202 3.19199
4331 2 26.6518 17.0599 4.37619
4333 1 26.6504 15.3339 5.59768
4329 1 28.1617 16.1833 3.15718
5607 1 -0.244521 20.4649 5.50378
4206 2 1.24683 19.598 4.27253
4208 1 1.21153 17.8729 5.49266
5621 1 2.75337 20.4944 5.49995
4220 2 4.24627 19.607 4.30066
4222 1 4.27372 17.8456 5.52196
4232 1 5.6954 18.7305 3.0992
5635 1 5.74785 20.4712 5.51297
4234 2 7.22726 19.6144 4.31357
4236 1 7.21135 17.8673 5.54923
5649 1 8.70453 20.4895 5.5792
4248 6 10.2194 19.6161 4.27785
4250 1 10.2121 17.8798 5.58126
5663 1 11.7496 20.5088 5.62654
4262 2 13.2347 19.6378 4.366
4264 1 13.2105 17.9125 5.6017
4274 1 14.7257 18.7436 3.12885
4288 1 17.65 18.8293 3.13805
5677 1 14.7317 20.537 5.5744
4276 2 16.2056 19.6657 4.37861
4278 1 16.2063 17.9257 5.59609
5691 1 17.6775 20.5407 5.63062
4290 2 19.1834 19.6511 4.39254
4292 1 19.1879 17.9179 5.60529
5705 1 20.6782 20.5141 5.63099
4302 1 20.6766 18.8385 3.17205
4304 2 22.1752 19.6442 4.38731
4306 1 22.175 17.9136 5.58539
5719 1 23.6711 20.504 5.63577
4316 1 23.677 18.8255 3.16623
4318 2 25.1622 19.6439 4.38538
4320 1 25.1634 17.9133 5.60889
5733 1 26.6915 20.508 5.58815
4330 1 26.6523 18.7767 3.1893
4332 2 28.0847 19.6131 4.32163
4334 1 28.1628 17.9531 5.58146
5605 2 -0.23097 22.193 4.26359
5603 1 1.31291 21.2879 3.06498
5608 1 1.26226 23.0522 5.49102
5619 2 2.75906 22.1829 4.29364
5617 1 4.20436 21.315 3.08902
5622 1 4.25935 23.0617 5.53169
5631 1 7.3076 21.3774 3.07624
5633 2 5.75664 22.2032 4.30379
5636 1 7.2449 23.0716 5.5769
5645 1 10.2561 21.3787 3.08297
5647 2 8.74876 22.2233 4.34532
5650 1 10.2354 23.0773 5.59179
5661 2 11.7332 22.2308 4.3673
5659 1 13.1669 21.3384 3.14161
5664 1 13.2613 23.0793 5.57428
5675 2 14.6418 22.1865 4.28932
5673 1 16.2555 21.3817 3.19438
5678 5 16.1965 23.0672 5.50412
5687 1 19.1878 21.3741 3.11906
5689 2 17.7555 22.2062 4.33147
5692 1 19.1535 23.0892 5.61638
5701 1 22.177 21.3247 3.14755
5703 2 20.6776 22.2345 4.39284
5706 1 22.1756 23.0888 5.59862
5717 2 23.6673 22.2285 4.37887
5715 1 25.1063 21.3362 3.16299
5720 1 25.1695 23.0791 5.59303
5731 2 26.6582 22.2208 4.36975
5729 1 28.1393 21.3523 3.21735
5734 1 28.1703 23.055 5.60393
7007 1 -0.230289 25.6462 5.5237
5606 2 1.26881 24.7837 4.29262
7021 1 2.76021 25.6465 5.53842
5618 1 2.77158 23.9821 3.08143
5620 2 4.26356 24.782 4.31168
5632 1 5.8209 23.9496 3.0715
7031 1 7.21548 26.5461 3.09877
7035 1 5.7486 25.6507 5.5544
5634 2 7.25785 24.7973 4.33481
7049 1 8.74024 25.6571 5.5591
5646 1 8.72689 23.9223 3.1378
7045 1 10.2524 26.594 3.13633
5648 2 10.2413 24.8063 4.35055
7063 1 11.7251 25.6594 5.57771
5660 1 11.7302 23.9507 3.18797
7059 1 13.2837 26.4794 3.15406
5662 2 13.2363 24.7964 4.37055
7073 1 16.2126 26.5335 3.12261
7077 1 14.7297 25.6325 5.60827
5674 1 14.7394 23.9859 3.17954
5676 2 16.2126 24.8757 4.32764
7087 1 19.1564 26.5738 3.16017
7091 1 17.6821 25.6396 5.63895
5688 1 17.7305 23.9878 3.17166
5690 2 19.1847 24.8158 4.39986
5702 1 20.6289 23.9251 3.18276
7105 1 20.6808 25.6796 5.61643
7101 1 22.2326 26.5064 3.18578
5704 2 22.1788 24.8175 4.39021
7115 1 25.1772 26.5542 3.13557
7119 1 23.6749 25.6813 5.64119
5716 1 23.6691 24.0183 3.17411
5718 2 25.1638 24.8117 4.38567
7129 1 28.1011 26.4944 3.10607
7133 1 26.6649 25.6581 5.61171
5730 1 26.651 23.9958 3.15838
5732 2 28.1486 24.7887 4.37894
7005 2 -0.217258 27.3749 4.30298
7008 1 1.26313 28.2474 5.54655
7019 2 2.76583 27.3745 4.31877
7022 1 4.24741 28.2531 5.56311
7032 1 5.73018 29.0585 3.07927
7033 2 5.74584 27.3804 4.33449
7036 1 7.23429 28.2543 5.57606
7046 1 8.71602 29.1032 3.08246
7047 2 8.73762 27.3864 4.34773
7050 1 10.2183 28.2487 5.60172
7060 1 11.6777 29.1281 3.12455
7061 2 11.7288 27.3877 4.35561
7064 1 13.2126 28.2396 5.58247
7074 1 14.7499 29.1181 3.14397
7075 2 14.7116 27.3767 4.3819
7078 1 16.1962 28.2422 5.61784
7088 1 17.6858 29.1213 3.14823
7102 1 20.627 29.1273 3.14598
7089 2 17.6961 27.3902 4.40822
7092 1 19.1845 28.2516 5.64139
7103 2 20.6849 27.3965 4.38967
7106 1 22.1819 28.261 5.61624
7116 1 23.7319 29.1257 3.16833
7117 2 23.6794 27.3977 4.39731
7120 1 25.1906 28.2625 5.58877
7131 2 26.6619 27.2935 4.44174
7130 5 26.6564 29.1066 3.092
7134 1 28.1314 28.2663 5.59951
11 1 -0.188342 1.50455 7.98048
13 3 -0.2294 -0.201658 8.94361
9 2 1.26592 0.660668 6.7283
14 3 1.27419 2.3676 8.96281
25 1 2.75888 1.55778 7.97234
27 7 2.748 -0.227739 8.97177
23 2 4.24097 0.637015 6.72604
28 3 4.24967 2.36619 8.95836
39 1 5.68726 1.45801 7.9791
41 3 5.73485 -0.251709 8.94437
37 2 7.23378 0.642591 6.72948
42 7 7.23083 2.36058 8.97177
53 1 8.72494 1.44178 7.94464
55 3 8.73317 -0.233338 8.9473
51 2 10.2238 0.646444 6.71904
56 7 10.2194 2.36058 8.97177
67 1 11.7567 1.44308 7.97641
69 3 11.7321 -0.226908 8.95957
65 2 13.2204 0.640431 6.70802
70 3 13.2183 2.33023 8.93438
81 1 14.6921 1.478 7.96397
83 3 14.683 -0.221679 8.9457
79 2 16.221 0.654755 6.73524
84 7 16.1965 2.36058 8.97177
95 1 17.7791 1.55121 7.95143
97 7 17.6908 -0.227739 8.97177
93 2 19.2117 0.655854 6.72222
98 3 19.2458 2.35393 8.96076
109 1 20.6694 1.5127 7.92637
111 7 20.6793 -0.227739 8.97177
107 2 22.2003 0.635638 6.67136
112 7 22.1736 2.36058 8.97177
123 1 23.6724 1.46534 7.86325
125 7 23.6679 -0.227739 8.97177
121 2 25.0843 0.655198 6.70688
126 7 25.1621 2.36058 8.97177
137 1 26.6353 1.44535 7.82478
139 7 26.6564 -0.227739 8.97177
135 2 28.1664 0.67435 6.68917
140 7 28.1507 2.36058 8.97177
1413 7 -0.240552 4.94891 8.97177
10 2 -0.245919 3.24213 6.74323
12 1 1.24284 4.04159 7.96007
1427 7 2.748 4.94891 8.97177
24 2 2.75071 3.24531 6.7417
26 1 4.29738 4.07259 7.98943
1441 3 5.74744 4.96514 8.9639
38 2 5.74334 3.23131 6.74565
40 1 7.23558 4.15522 7.97939
1455 3 8.69568 5.00164 8.9781
52 2 8.70892 3.2442 6.74442
54 1 10.1092 4.15677 7.98241
1469 7 11.7137 4.94891 8.97177
66 6 11.7137 3.22336 6.73038
68 1 13.266 4.0339 7.98142
1483 7 14.7022 4.94891 8.97177
80 2 14.7249 3.23045 6.73274
82 1 16.2055 4.10803 7.91931
1497 7 17.6908 4.94891 8.97177
94 2 17.7094 3.24513 6.74055
96 1 19.263 4.03687 8.00267
1511 3 20.7212 4.94632 8.95067
108 2 20.7078 3.23647 6.73228
110 1 22.2194 4.12607 7.9873
1525 3 23.7065 4.98237 8.9407
122 2 23.6818 3.21846 6.71062
124 1 25.1573 4.11429 7.94502
1539 3 26.6326 4.94294 8.94143
136 2 26.6343 3.20363 6.68801
138 1 28.0971 4.09841 7.9422
1553 3 29.5708 4.93604 8.92613
150 2 29.5961 3.19976 6.69819
1411 1 -0.204909 6.70603 7.95558
1410 2 -0.254858 8.42685 6.74367
1409 2 1.24531 5.83273 6.74588
1414 3 1.22505 7.55875 8.96995
1425 1 2.67884 6.73416 7.96195
1424 2 2.73678 8.42481 6.74736
1423 2 4.22871 5.8267 6.75032
1428 7 4.24228 7.53723 8.97177
1439 1 5.70598 6.636 7.95473
1438 2 5.72451 8.41926 6.74281
1437 2 7.21875 5.83836 6.73528
1442 7 7.23083 7.53723 8.97177
1453 1 8.74902 6.68211 7.97145
1452 2 8.71 8.42421 6.73955
1451 2 10.2083 5.84202 6.73512
1456 3 10.1998 7.5531 8.96059
1467 1 11.6641 6.7339 7.9615
1466 2 11.7102 8.42742 6.75854
1465 2 13.207 5.8233 6.75445
1470 7 13.2079 7.53723 8.97177
1481 1 14.697 6.66215 7.93203
1480 2 14.7079 8.41241 6.7572
1479 2 16.1823 5.82599 6.73693
1484 7 16.1965 7.53723 8.97177
1495 1 17.637 6.70441 7.93053
1494 2 17.6836 8.41322 6.75851
1493 6 19.185 5.81168 6.73038
1498 7 19.185 7.53723 8.97177
1508 2 20.5938 8.45649 6.85809
1509 1 20.7263 6.62779 7.96201
1507 2 22.1961 5.75303 6.80708
1512 7 22.1736 7.53723 8.97177
1523 1 23.6812 6.66743 7.93922
1522 2 23.6757 8.43717 6.82449
1521 2 25.1309 5.80597 6.69012
1526 3 25.1523 7.49386 8.93719
1551 1 29.568 6.65474 7.98363
1537 1 26.6408 6.63498 7.97919
1536 6 26.6564 8.4 6.73038
1535 2 28.12 5.80089 6.70483
1540 3 28.1192 7.50609 8.94753
2813 3 -0.259819 10.1263 8.98397
2809 2 1.25103 11.0027 6.76437
1412 1 1.19941 9.26062 7.99793
2827 7 2.748 10.1255 8.97177
2823 2 4.23572 11.0107 6.73982
1426 1 4.24542 9.28447 7.91745
2841 7 5.73655 10.1255 8.97177
2837 2 7.21727 11.0107 6.74522
1440 1 7.2478 9.29972 7.95096
2855 3 8.69432 10.1281 8.96322
2851 2 10.2171 11.0107 6.76323
1454 1 10.1664 9.26194 7.9956
2869 7 11.7137 10.1255 8.97177
2865 2 13.2132 11.0068 6.74956
1468 1 13.281 9.30552 7.97244
2883 3 14.7254 10.1555 8.97562
2879 2 16.2097 10.996 6.73435
1482 1 16.2036 9.31356 7.99933
2897 3 17.6695 10.1598 8.99396
2893 2 19.1797 11.0005 6.76581
1496 1 19.1509 9.30833 8.02627
2911 3 20.634 10.1401 9.00085
2907 2 22.148 10.9815 6.77814
1510 1 22.0698 9.2869 7.98556
2925 7 23.6679 10.1255 8.97177
2921 2 25.1436 10.9868 6.77876
1524 1 25.0753 9.20911 8.01175
2939 7 26.6564 10.1255 8.97177
2935 2 28.1339 10.9866 6.77097
1538 1 28.2508 9.248 8.04715
2811 1 -0.232472 11.8046 7.98765
2810 2 -0.256091 13.6018 6.77342
2812 1 1.22315 14.5011 7.98886
2814 7 1.25372 12.7139 8.97177
2825 1 2.7562 11.8641 7.92043
2824 2 2.72836 13.5868 6.73597
2826 1 4.17258 14.4782 7.94424
2828 7 4.24228 12.7139 8.97177
2839 1 5.75643 11.8894 7.96973
2838 2 5.72147 13.5225 6.81265
2840 1 7.19976 14.3884 7.95513
2842 3 7.21525 12.7171 8.96514
2853 1 8.67894 11.8382 7.99967
2852 2 8.70806 13.5921 6.75746
2854 1 10.2003 14.4518 7.93852
2856 7 10.2194 12.7139 8.97177
2867 1 11.7613 11.8974 7.96951
2866 2 11.7092 13.5964 6.76333
2868 1 13.1936 14.4022 7.99455
2870 3 13.2153 12.7176 8.97982
2881 1 14.7016 11.868 8.00661
2880 2 14.7025 13.594 6.77201
2882 1 16.1948 14.3829 8.01022
2884 3 16.1893 12.6974 8.99483
2895 1 17.6796 11.8648 8.01286
2894 2 17.693 13.5908 6.78533
2896 1 19.1953 14.3817 8.02402
2898 3 19.1707 12.6886 8.99918
2909 1 20.6369 11.8338 8.01538
2908 2 20.6805 13.5843 6.79443
2910 1 22.1725 14.4386 7.98118
2912 7 22.1736 12.7139 8.97177
2923 1 23.7249 11.8714 8.00323
2922 2 23.666 13.5812 6.79797
2924 1 25.1537 14.3963 8.02051
2926 3 25.1725 12.7133 9.00685
2937 1 26.6463 11.8819 8.01752
2936 2 26.648 13.5841 6.79655
2938 1 28.1472 14.3785 8.02241
2940 3 28.1335 12.6936 9.00652
4213 3 -0.261664 15.3396 8.96212
4209 2 1.23405 16.1673 6.73423
4225 1 2.73964 16.936 7.98053
4227 3 2.72466 15.2893 8.97303
4223 2 4.17577 16.1758 6.79297
4239 1 5.73927 16.9854 7.90489
4241 7 5.73655 15.3022 8.97177
4237 2 7.2932 16.1968 6.82303
4253 1 8.74977 17.0417 7.99319
4255 7 8.72511 15.3022 8.97177
4251 2 10.2073 16.1865 6.76685
4267 1 11.6497 17.0701 8.01553
4269 7 11.7137 15.3022 8.97177
4265 2 13.2024 16.1831 6.81465
4281 1 14.741 17.0563 8.02907
4283 7 14.7022 15.3022 8.97177
4279 2 16.1981 16.186 6.82362
4295 1 17.6379 17.079 8.0476
4297 7 17.6908 15.3022 8.97177
4293 2 19.1854 16.1837 6.83908
4309 1 20.7202 17.0603 8.04171
4311 7 20.6793 15.3022 8.97177
4307 2 22.1744 16.1808 6.81883
4323 1 23.6285 17.0618 8.04085
4325 7 23.6679 15.3022 8.97177
4321 2 25.1657 16.1851 6.83616
4337 1 26.719 17.0756 8.03312
4339 7 26.6564 15.3022 8.97177
4335 2 28.156 16.1865 6.81726
4351 1 29.6013 17.0657 8.04224
5613 7 -0.240552 20.4788 8.97177
4210 2 -0.255518 18.748 6.72624
4212 1 1.28692 19.6587 7.95898
4214 7 1.25372 17.8905 8.97177
5627 3 2.74997 20.4833 8.94939
4224 6 2.748 18.7533 6.73038
4226 1 4.28736 19.6829 8.02781
4228 7 4.24228 17.8905 8.97177
5641 3 5.74146 20.507 9.00751
4238 2 5.73536 18.7354 6.75974
4240 1 7.20328 19.6485 8.01879
4242 7 7.23083 17.8905 8.97177
5655 3 8.68727 20.4593 9.01144
4252 2 8.70405 18.7488 6.79015
4254 1 10.1619 19.5948 8.04853
4256 3 10.1827 17.8877 9.0118
5669 7 11.7137 20.4788 8.97177
4266 2 11.7121 18.7689 6.8226
4268 1 13.2535 19.6568 8.02259
4270 7 13.2079 17.8905 8.97177
5683 3 14.688 20.5027 9.03631
4280 2 14.7044 18.7777 6.81533
4282 1 16.1572 19.6215 8.07936
4284 3 16.1749 17.9103 9.03871
5697 7 17.6908 20.4788 8.97177
4294 2 17.6922 18.7863 6.83154
4296 1 19.1813 19.6385 8.01248
4298 7 19.185 17.8905 8.97177
5711 7 20.6793 20.4788 8.97177
4308 2 20.6798 18.7723 6.83344
4310 1 22.1775 19.5665 8.05392
4312 3 22.1744 17.8874 9.04559
5725 7 23.6679 20.4788 8.97177
4322 2 23.6734 18.7695 6.83917
4324 1 25.231 19.6598 8.04242
4326 7 25.1621 17.8905 8.97177
5739 3 26.6861 20.4942 9.03886
4336 2 26.6718 18.7845 6.81576
4338 1 28.1741 19.667 8.04462
4340 3 28.1601 17.9515 9.01609
5611 1 -0.227237 22.2357 7.96493
5609 2 1.25147 21.3403 6.73165
5614 3 1.24335 23.0553 8.97026
5625 1 2.70115 22.1874 7.98303
5623 2 4.25608 21.3468 6.75322
5628 7 4.24228 23.0672 8.97177
5639 1 5.74142 22.1593 7.97304
5637 2 7.24295 21.3322 6.77
5642 7 7.23083 23.0672 8.97177
5653 1 8.73847 22.1352 8.01173
5651 2 10.2294 21.3459 6.81967
5656 7 10.2194 23.0672 8.97177
5667 1 11.774 22.2454 8.02065
5665 2 13.2194 21.3559 6.80191
5670 3 13.2352 23.0562 9.02765
5681 1 14.6927 22.1919 8.03683
5679 2 16.2062 21.2913 6.90598
5684 7 16.1965 23.0672 8.97177
5695 1 17.7497 22.2736 8.04454
5693 2 19.1864 21.3742 6.84482
5698 3 19.2007 23.097 9.05923
5709 1 20.6934 22.275 8.08849
5707 2 22.1759 21.3625 6.85396
5712 3 22.1747 23.1168 9.06283
5723 1 23.6575 22.2799 8.08756
5721 2 25.1665 21.3596 6.83343
5726 3 25.1632 23.0787 9.06099
5737 1 26.6173 22.2016 8.07646
5735 2 28.0841 21.4172 6.89094
5740 7 28.1507 23.0672 8.97177
7013 3 -0.232277 25.608 8.96603
5610 2 -0.231343 23.9178 6.73447
7009 2 1.25779 26.5065 6.76214
5612 1 1.27711 24.7766 8.0129
7027 3 2.75712 25.6448 8.98321
5624 2 2.76339 23.9195 6.75292
7023 2 4.24758 26.5211 6.77764
5626 1 4.26183 24.8377 8.01663
7041 3 5.7367 25.6798 9.00026
5638 2 5.7476 23.9285 6.78558
7037 2 7.23304 26.5276 6.79255
5640 1 7.2335 24.8449 8.04249
7055 3 8.71298 25.6837 9.02223
5652 2 8.73323 23.9316 6.81293
7051 2 10.2192 26.528 6.81089
5654 1 10.2088 24.8543 8.05952
7069 3 11.7117 25.6582 9.03653
5666 2 11.7236 23.9356 6.80956
7065 2 13.2147 26.5174 6.81421
5668 1 13.2031 24.7871 8.08586
5680 2 14.6505 23.9705 6.88533
7083 3 14.6869 25.6583 9.04622
7079 2 16.196 26.5169 6.84337
5682 1 16.1312 24.8155 8.03702
7097 7 17.6908 25.6555 8.97177
5694 2 17.7555 23.9836 6.90904
7093 2 19.1844 26.5334 6.85516
5696 1 19.1869 24.7768 8.06821
7111 7 20.6793 25.6555 8.97177
5708 2 20.6821 23.9563 6.83853
7107 2 22.1827 26.5455 6.85177
5710 1 22.1783 24.7843 8.05211
7125 7 23.6679 25.6555 8.97177
5722 2 23.6717 23.9556 6.84147
7121 2 25.1699 26.5395 6.84459
5724 1 25.2133 24.7786 8.08314
7139 3 26.6664 25.6655 9.05436
5736 2 26.6705 23.9403 6.83225
7135 2 28.1691 26.5348 6.83948
5738 1 28.1221 24.848 8.04352
7011 1 -0.256159 27.2936 7.9784
7010 2 -0.234058 29.108 6.75056
7014 7 1.25372 28.2438 8.97177
7025 1 2.73952 27.3222 7.9861
7024 2 2.73873 29.1148 6.76643
7028 7 4.24228 28.2438 8.97177
7039 1 5.72916 27.3538 7.99946
7038 2 5.72441 29.1202 6.78929
7042 7 7.23083 28.2438 8.97177
7053 1 8.71391 27.3528 8.01439
7052 2 8.71576 29.1158 6.81302
7056 7 10.2194 28.2438 8.97177
7067 1 11.751 27.3553 8.05511
7066 2 11.7041 29.1006 6.8275
7070 3 13.1957 28.2279 9.05283
7081 1 14.697 27.3841 8.09507
7080 2 14.6991 29.1085 6.84063
7084 3 16.1816 28.245 9.06124
7095 1 17.6466 27.4207 8.06938
7094 2 17.6903 29.1166 6.86023
7098 7 19.185 28.2438 8.97177
7109 1 20.6899 27.3878 8.02393
7108 2 20.6858 29.1235 6.84686
7112 7 22.1736 28.2438 8.97177
7126 3 25.2101 28.2691 9.04742
7123 1 23.7329 27.4604 8.05939
7122 2 23.6909 29.1315 6.84789
7140 7 28.1507 28.2438 8.97177
7137 1 26.6439 27.3608 8.06655
7136 2 26.6976 29.108 6.8077
8401 7 -0.240552 30.8321 2.03646
8403 1 1.27906 31.7567 3.0481
8415 7 2.748 30.8321 2.03646
8429 7 5.73655 30.8321 2.03646
8443 3 8.77985 30.8294 2.13549
8457 3 11.7245 30.825 2.14166
8471 3 14.704 30.8136 2.16314
8485 3 17.6662 30.8262 2.16321
8499 3 20.6478 30.8256 2.16186
8513 3 23.6941 30.8013 2.15429
8527 3 26.6219 30.9015 2.09705
8402 3 1.26554 33.4257 2.03717
8404 1 -0.22976 34.3043 2.97104
8416 7 4.24228 33.4204 2.03646
8418 1 2.71919 34.2492 3.04475
8430 7 7.23083 33.4204 2.03646
8444 3 10.2061 33.3731 2.09103
8458 7 13.2079 33.4204 2.03646
8472 7 16.1965 33.4204 2.03646
8486 3 19.1722 33.4185 2.14031
8500 3 22.1432 33.3736 2.12427
8514 7 25.1621 33.4204 2.03646
8528 3 28.1628 33.3545 2.09231
9801 3 -0.220401 36.0335 2.02211
9802 3 1.36368 38.5205 1.96128
9803 1 1.22471 36.9005 3.0221
9815 7 2.748 36.0088 2.03646
9816 3 4.265 38.5737 2.03318
9817 1 4.32733 36.8765 3.01229
9829 3 5.79256 35.9887 2.05461
9830 7 7.23083 38.5971 2.03646
9831 1 7.28535 36.7952 3.03553
9843 3 8.77443 35.9481 2.07295
9844 3 10.2789 38.5355 2.12732
9857 3 11.7205 36.0732 2.09251
9858 3 13.1955 38.5107 2.14067
9871 7 14.7022 36.0088 2.03646
9872 3 16.1933 38.5497 2.11417
9885 3 17.7208 35.9892 2.12638
9886 7 19.185 38.5971 2.03646
9899 3 20.6588 35.971 2.12384
9900 7 22.1736 38.5971 2.03646
9913 7 23.6679 36.0088 2.03646
9914 3 25.1691 38.6398 2.09535
9927 7 26.6564 36.0088 2.03646
9928 7 28.1507 38.5971 2.03646
11201 3 -0.232044 41.198 2.0084
11215 7 2.748 41.1854 2.03646
9818 1 2.76076 39.391 2.99366
11229 7 5.73655 41.1854 2.03646
9832 1 5.70127 39.443 3.03022
11243 7 8.72511 41.1854 2.03646
11257 7 11.7137 41.1854 2.03646
9860 1 11.7412 39.4891 3.0155
11271 7 14.7022 41.1854 2.03646
11285 7 17.6908 41.1854 2.03646
11299 3 20.7147 41.2099 2.09655
11313 3 23.6923 41.1787 2.10578
11327 7 26.6564 41.1854 2.03646
11202 7 1.25372 43.7737 2.03646
11204 1 -0.238576 44.64 3.03044
11203 1 1.21193 41.9996 3.01291
11216 7 4.24228 43.7737 2.03646
11218 1 2.76186 44.6995 2.99332
11217 1 4.25256 42.0614 3.04984
11230 7 7.23083 43.7737 2.03646
11232 1 5.76855 44.6245 3.05829
11244 7 10.2194 43.7737 2.03646
11258 3 13.2332 43.7915 2.07396
11260 1 11.7698 44.6536 3.05192
11272 7 16.1965 43.7737 2.03646
11286 3 19.231 43.8116 2.08737
11288 1 17.7506 44.6519 3.0633
11287 1 19.2553 42.103 3.05745
11300 7 22.1736 43.7737 2.03646
11314 7 25.1621 43.7737 2.03646
11328 7 28.1507 43.7737 2.03646
12601 7 -0.240552 46.3621 2.03646
12603 1 1.29362 47.2058 3.00703
12615 3 2.75041 46.3827 2.00379
12617 1 4.21794 47.2348 2.98523
12629 7 5.73655 46.3621 2.03646
12631 1 7.25906 47.2631 3.03414
12643 7 8.72511 46.3621 2.03646
12645 1 10.3029 47.1818 3.04613
12657 3 11.7657 46.3452 2.06116
12671 7 14.7022 46.3621 2.03646
12685 3 17.7396 46.348 2.08125
12699 3 20.6765 46.3871 2.08375
12701 1 22.1469 47.2639 3.04844
12713 7 23.6679 46.3621 2.03646
12727 3 26.7047 46.3821 2.10335
12729 1 28.1898 47.2598 3.05373
12602 7 1.25372 48.9504 2.03646
12604 1 -0.266168 49.7943 3.0463
12616 3 4.27646 48.9224 1.98906
12618 1 2.85699 49.7765 2.97063
12630 3 7.23584 48.9274 2.01818
12632 1 5.74629 49.7621 2.98114
12646 1 8.67533 49.7795 3.02396
12644 7 10.2194 48.9504 2.03646
12658 7 13.2079 48.9504 2.03646
12660 1 11.7277 49.8783 3.05518
12672 7 16.1965 48.9504 2.03646
12686 7 19.185 48.9504 2.03646
12700 3 22.1754 48.9706 2.08022
12714 7 25.1621 48.9504 2.03646
12716 1 23.6395 49.8338 3.06135
12728 3 28.1647 48.9984 2.11866
14001 7 -0.240552 51.5387 2.03646
14003 1 1.23832 52.4191 3.05648
14015 7 2.748 51.5387 2.03646
14017 1 4.2432 52.4765 3.00212
14029 7 5.73655 51.5387 2.03646
14031 1 7.25861 52.4198 3.05533
14043 7 8.72511 51.5387 2.03646
14045 1 10.2825 52.3847 3.03922
14057 3 11.7429 51.5502 2.05183
14071 7 14.7022 51.5387 2.03646
14085 3 17.704 51.5698 2.10172
14087 1 19.2 52.3697 3.06057
14099 7 20.6793 51.5387 2.03646
14113 3 23.7075 51.5391 2.09593
14127 3 26.5637 51.4787 2.03977
15401 3 -0.273991 56.7088 2.00947
14002 7 1.25372 54.127 2.03646
15415 3 2.7869 56.6576 1.95945
14016 3 4.24176 54.1501 1.99669
14018 1 2.76601 54.9832 2.97961
15429 3 5.68219 56.676 1.97458
14030 7 7.23083 54.127 2.03646
14032 1 5.70057 54.9996 2.99117
14044 7 10.2194 54.127 2.03646
14046 1 8.74779 55.0766 3.02586
15457 7 11.7137 56.7153 2.03646
14058 7 13.2079 54.127 2.03646
15471 7 14.7022 56.7153 2.03646
14072 7 16.1965 54.127 2.03646
15485 7 17.6908 56.7153 2.03646
14086 7 19.185 54.127 2.03646
15499 7 20.6793 56.7153 2.03646
14100 7 22.1736 54.127 2.03646
15513 7 23.6679 56.7153 2.03646
14114 7 25.1621 54.127 2.03646
15527 3 26.6646 56.6764 2.09189
14128 3 28.1706 54.2238 2.08717