ITEM: TIMESTEP
0
ITEM: NUMBER OF ATOMS
81200
ITEM: BOX BOUNDS pp pp pp
-2.1752207190327563e-01 2.9851701796792275e+02
-2.3474865115180313e-01 2.9988246062531994e+02
0.0000000000000000e+00 4.9031656433928198e+01
ITEM: ATOMS id type x y z
1 3 -0.203226 -0.136763 2.05244
2 3 1.31019 2.42875 2.06047
3 1 1.26002 0.727609 3.03274
15 7 2.80717 -0.163699 2.03646
16 3 4.29868 2.45006 2.05724
17 1 4.30555 0.774581 3.05622
29 7 5.79451 -0.163699 2.03646
30 3 7.31052 2.43934 2.05636
31 1 7.33999 0.733089 3.02334
43 3 8.81103 -0.10553 2.03249
44 3 10.2537 2.44649 2.0461
45 1 10.2667 0.750476 3.02622
57 7 11.7692 -0.163699 2.03646
58 7 13.2629 2.42352 2.03646
59 1 13.3455 0.673003 3.02784
71 3 14.8082 -0.147853 2.02914
72 7 16.2502 2.42352 2.03646
73 1 16.2331 0.701578 3.05286
85 7 17.7439 -0.163699 2.03646
86 3 19.2479 2.50558 2.05288
87 1 19.2564 0.818807 3.04032
99 7 20.7312 -0.163699 2.03646
100 7 22.2249 2.42352 2.03646
101 1 22.2747 0.696892 3.0636
113 3 23.7276 -0.0142376 2.00449
114 3 25.1823 2.44204 2.01949
115 1 25.1788 0.784148 3.01707
127 7 26.7059 -0.163699 2.03646
128 7 28.1996 2.42352 2.03646
129 1 28.2248 0.671087 3.0601
1401 7 -0.18018 5.01074 2.03646
1415 7 2.80717 5.01074 2.03646
18 1 2.80017 3.25477 3.03471
1429 3 5.79087 5.02709 2.06859
32 1 5.80621 3.29507 3.00607
1443 7 8.78186 5.01074 2.03646
46 1 8.78456 3.2759 3.04336
60 1 11.7125 3.27674 3.04637
1457 7 11.7692 5.01074 2.03646
1471 7 14.7565 5.01074 2.03646
1485 3 17.7741 5.05874 2.05992
88 1 17.7819 3.3552 3.03771
1499 3 20.7179 5.06014 2.08249
102 1 20.7106 3.35182 3.04455
1513 7 23.7186 5.01074 2.03646
116 1 23.7647 3.29207 3.05288
130 1 26.6398 3.26939 3.02011
1527 7 26.7059 5.01074 2.03646
1402 7 1.31349 7.59795 2.03646
1416 7 4.30084 7.59795 2.03646
1430 7 7.28818 7.59795 2.03646
1444 7 10.2755 7.59795 2.03646
1458 3 13.2993 7.60691 2.08425
1472 3 16.2807 7.5965 2.08813
1474 1 14.7888 8.42777 3.0595
1473 1 16.3092 5.897 3.06315
1486 3 19.2399 7.63904 2.10914
1487 1 19.2243 5.90539 3.04389
1502 1 20.6814 8.58416 3.04987
1500 7 22.2249 7.59795 2.03646
1501 1 22.2173 5.83838 3.05761
1514 3 25.1974 7.66181 2.0774
1515 1 25.19 5.96396 3.04002
1528 3 28.1937 7.60523 2.06644
1530 1 26.7115 8.4402 3.04968
1529 1 28.2186 5.90325 3.03734
2801 3 -0.191 10.22 2.09033
2815 3 2.78483 10.193 2.08362
2829 7 5.79451 10.1852 2.03646
2831 1 7.31375 11.1148 3.06207
2843 3 8.78028 10.2463 2.09107
2857 7 11.7692 10.1852 2.03646
2871 7 14.7565 10.1852 2.03646
2885 7 17.7439 10.1852 2.03646
2899 3 20.7253 10.2589 2.07689
2913 3 23.7086 10.1873 2.10607
2927 7 26.7059 10.1852 2.03646
2802 7 1.31349 12.7724 2.03646
2816 7 4.30084 12.7724 2.03646
2830 3 7.29213 12.8293 2.10755
2844 7 10.2755 12.7724 2.03646
2858 7 13.2629 12.7724 2.03646
2872 7 16.2502 12.7724 2.03646
2886 3 19.2723 12.8453 2.11836
2900 7 22.2249 12.7724 2.03646
2914 7 25.2123 12.7724 2.03646
2928 7 28.1996 12.7724 2.03646
4201 7 -0.18018 15.3596 2.03646
4215 7 2.80717 15.3596 2.03646
4229 3 5.81213 15.378 2.11827
4243 7 8.78186 15.3596 2.03646
4257 7 11.7692 15.3596 2.03646
4271 3 14.7969 15.4236 2.13141
4285 3 17.7754 15.4085 2.14246
4299 7 20.7312 15.3596 2.03646
4313 7 23.7186 15.3596 2.03646
4327 7 26.7059 15.3596 2.03646
5601 7 -0.18018 20.534 2.03646
4202 7 1.31349 17.9468 2.03646
5615 3 2.83871 20.5034 2.08627
4216 3 4.32585 17.9225 2.10342
4218 1 2.85287 18.8 3.05818
5629 7 5.79451 20.534 2.03646
4230 7 7.28818 17.9468 2.03646
5643 3 8.84723 20.543 2.15072
4244 3 10.2973 18.0103 2.16873
4246 1 8.74658 18.8094 3.05814
5657 3 11.7777 20.5273 2.16267
4258 3 13.3429 17.9459 2.11354
5671 7 14.7565 20.534 2.03646
4272 3 16.266 17.9808 2.15841
5685 3 17.7322 20.5847 2.17441
4286 7 19.2376 17.9468 2.03646
5699 3 20.7368 20.5645 2.17318
4300 7 22.2249 17.9468 2.03646
5713 3 23.7092 20.551 2.16637
4314 7 25.2123 17.9468 2.03646
5727 7 26.7059 20.534 2.03646
4328 7 28.1996 17.9468 2.03646
5602 7 1.31349 23.1213 2.03646
5616 7 4.30084 23.1213 2.03646
5630 3 7.35615 23.1368 2.1201
5644 7 10.2755 23.1213 2.03646
5658 7 13.2629 23.1213 2.03646
5672 7 16.2502 23.1213 2.03646
5686 3 19.225 23.1579 2.18113
5700 7 22.2249 23.1213 2.03646
5714 7 25.2123 23.1213 2.03646
5728 7 28.1996 23.1213 2.03646
7001 3 -0.144605 25.7167 2.07657
7003 1 1.34539 26.5497 3.05691
7015 3 2.83988 25.7083 2.08855
7029 3 5.8353 25.7104 2.11435
7043 7 8.78186 25.7085 2.03646
7057 7 11.7692 25.7085 2.03646
7071 3 14.7933 25.7004 2.16546
7085 3 17.766 25.7317 2.17943
7099 7 20.7312 25.7085 2.03646
7113 3 23.7505 25.7483 2.18021
7127 3 26.7047 25.7311 2.16485
7002 3 1.35177 28.255 2.07651
7004 1 -0.12983 29.1036 3.04672
7016 3 4.32385 28.2541 2.09804
7018 1 2.83082 29.0969 3.0561
7030 3 7.2883 28.2918 2.12081
7044 3 10.2797 28.3208 2.13913
7058 7 13.2629 28.2957 2.03646
7072 3 16.2666 28.3083 2.16783
7086 3 19.2105 28.3163 2.16792
7100 7 22.2249 28.2957 2.03646
7114 3 25.1615 28.2768 2.13353
7128 3 28.306 28.2028 2.07785
5 2 -0.185225 1.57731 4.28114
7 1 -0.174903 -0.154348 5.50412
8 1 1.31669 2.43348 5.50897
19 2 2.80911 1.56982 4.27426
21 1 2.81445 -0.159614 5.49662
22 1 4.30718 2.43617 5.50577
33 2 5.80319 1.57472 4.26966
35 1 5.80709 -0.15638 5.46983
36 1 7.29128 2.43922 5.52429
47 2 8.8003 1.5863 4.28578
49 1 8.79243 -0.157724 5.48285
50 1 10.2608 2.43069 5.50077
61 2 11.7835 1.57082 4.24362
63 1 11.7838 -0.154246 5.45423
64 1 13.3015 2.41727 5.45099
75 2 14.7689 1.57796 4.26766
77 1 14.7789 -0.158822 5.48344
78 1 16.2727 2.43172 5.50366
89 2 17.7617 1.59073 4.26262
91 1 17.775 -0.152618 5.48538
92 1 19.2586 2.44438 5.49936
103 2 20.7472 1.59835 4.2592
105 1 20.7549 -0.161502 5.47581
106 1 22.2406 2.43185 5.48919
117 2 23.723 1.57507 4.26819
119 1 23.6951 -0.199005 5.47174
120 1 25.2183 2.39115 5.49039
131 2 26.6857 1.6436 4.17592
133 5 26.7059 -0.163699 5.50412
134 1 28.1629 2.39804 5.46171
147 1 29.6453 -0.160672 5.4852
1407 1 -0.186927 5.02411 5.51999
4 1 -0.121755 3.28556 3.07285
6 2 1.31564 4.16814 4.28824
1421 1 2.80496 5.0255 5.5223
20 2 4.29844 4.16338 4.28172
1435 1 5.78981 5.02104 5.51318
34 2 7.28839 4.16937 4.27995
1449 1 8.77774 5.03266 5.49208
48 2 10.272 4.17384 4.27484
1463 1 11.7795 5.04875 5.49887
62 2 13.2684 4.16572 4.26764
1477 1 14.7637 5.01963 5.51579
74 1 14.753 3.31622 3.10189
76 2 16.2606 4.16557 4.29018
1491 1 17.763 5.02525 5.54136
90 2 19.2525 4.17879 4.30127
1505 1 20.7653 5.01717 5.55033
104 2 22.2393 4.16106 4.27423
1519 1 23.705 5.0371 5.47939
118 2 25.1998 4.15625 4.25605
1533 1 26.6838 5.00496 5.46605
132 2 28.1809 4.1544 4.2505
1405 2 -0.195416 6.75266 4.28839
1404 1 -0.215303 8.5373 3.08017
1403 1 1.30273 5.90895 3.11849
1408 1 1.30338 7.61113 5.50642
1419 2 2.80077 6.75154 4.28868
1418 1 2.80332 8.519 3.08382
1417 1 4.34187 5.86434 3.07351
1422 1 4.28963 7.60879 5.52415
1433 2 5.78786 6.7544 4.29205
1432 1 5.78771 8.48901 3.12132
1431 1 7.2357 5.87867 3.06727
1436 1 7.28115 7.61824 5.51833
1447 2 8.77557 6.76742 4.27786
1446 1 8.77651 8.55859 3.07282
1445 1 10.2673 5.91319 3.11221
1450 1 10.2735 7.62355 5.50462
1461 2 11.7781 6.74713 4.30633
1460 1 11.8534 8.45652 3.08347
1459 1 13.2655 5.93483 3.08735
1464 1 13.2689 7.61178 5.55324
1475 2 14.7694 6.74463 4.30532
1478 1 16.2604 7.61307 5.55069
1488 1 17.7421 8.44877 3.08136
1489 2 17.7556 6.75979 4.32629
1492 1 19.2506 7.63931 5.59275
1503 6 20.7312 6.73555 4.27785
1506 5 22.2249 7.59795 5.50412
1517 2 23.768 6.71294 4.21077
1516 1 23.737 8.4929 3.09221
1520 1 25.157 7.60622 5.51284
1531 2 26.6846 6.75006 4.27655
1534 1 28.1704 7.60821 5.51567
2803 1 1.30675 11.0189 3.07053
2807 1 -0.193035 10.2018 5.53533
1406 2 1.29956 9.33671 4.30067
2821 1 2.79634 10.2023 5.5475
2817 1 4.22639 11.0407 3.09073
1420 2 4.28801 9.34149 4.30406
2835 1 5.78395 10.2105 5.52242
1434 2 7.27895 9.35527 4.29763
2849 1 8.77643 10.2119 5.53344
2845 1 10.2458 11.0476 3.09824
1448 2 10.2803 9.34953 4.29477
2863 1 11.7675 10.202 5.5452
2859 1 13.2693 11.0933 3.13763
1462 2 13.2783 9.3445 4.30814
2877 1 14.7623 10.1987 5.52438
2873 1 16.2416 11.0906 3.13844
1476 2 16.2572 9.34699 4.30752
2887 1 19.2813 11.1334 3.07694
2891 1 17.7513 10.2019 5.52591
1490 2 19.2371 9.36544 4.31577
2901 1 22.2276 11.0329 3.07614
2905 1 20.7427 10.174 5.54854
1504 2 22.2088 9.40768 4.24912
2919 1 23.6818 10.1625 5.57438
2915 1 25.1375 11.0522 3.1161
1518 2 25.1898 9.33872 4.31787
2933 1 26.6807 10.1927 5.54826
2929 1 28.174 11.101 3.1413
1532 2 28.1767 9.34802 4.29969
2805 2 -0.189313 11.9308 4.31889
2804 1 -0.214282 13.6244 3.09371
2806 2 1.30462 14.5043 4.31296
2808 1 1.30209 12.7896 5.53838
2819 2 2.79429 11.9255 4.31388
2818 1 2.78544 13.6434 3.1233
2820 2 4.21974 14.4605 4.24719
2822 1 4.31255 12.8121 5.52975
2833 2 5.7811 11.9383 4.3025
2832 1 5.82899 13.6827 3.1007
2834 2 7.34515 14.4748 4.27999
2836 1 7.26124 12.8168 5.54191
2847 2 8.77853 11.9387 4.31784
2846 1 8.75555 13.6431 3.10839
2848 2 10.2722 14.5269 4.33465
2850 1 10.2695 12.7913 5.55262
2861 2 11.7692 11.9355 4.32185
2860 1 11.7586 13.6646 3.15821
2862 2 13.2662 14.5285 4.34129
2864 1 13.2675 12.7934 5.53746
2875 2 14.7597 11.9432 4.31512
2874 1 14.7601 13.7379 3.11658
2876 2 16.2599 14.5299 4.3542
2878 1 16.253 12.7958 5.53969
2888 1 17.8014 13.6963 3.09967
2889 2 17.7459 11.9423 4.31935
2890 2 19.248 14.5331 4.36542
2892 1 19.2398 12.7901 5.56801
2903 2 20.7374 11.9404 4.33804
2902 1 20.7132 13.6633 3.14592
2904 2 22.2282 14.5303 4.36964
2906 1 22.223 12.7803 5.57451
2917 2 23.7044 11.9291 4.34124
2916 1 23.7127 13.6909 3.17849
2918 2 25.2051 14.5283 4.36687
2920 1 25.2021 12.7788 5.55518
2931 2 26.6842 11.9321 4.32866
2930 1 26.6766 13.6681 3.16791
2932 2 28.1842 14.5324 4.35652
2934 1 28.1866 12.7869 5.54741
4205 2 -0.194662 17.0768 4.3046
4203 1 1.31205 16.202 3.13152
4219 2 2.80723 17.0664 4.30264
4221 1 2.82715 15.3564 5.51419
4217 1 4.34928 16.2329 3.10286
4233 2 5.78013 17.1513 4.29297
4235 5 5.79451 15.3596 5.50412
4231 1 7.23221 16.1982 3.16687
4247 2 8.76272 17.0906 4.34157
4249 1 8.74603 15.3725 5.55906
4245 1 10.2693 16.3123 3.13345
4259 1 13.324 16.2616 3.11674
4261 2 11.7827 17.0981 4.35638
4263 1 11.7681 15.3834 5.56903
4273 1 16.2857 16.2569 3.1136
4275 2 14.7724 17.1114 4.37933
4277 1 14.7593 15.3875 5.60512
4289 2 17.7571 17.1207 4.38417
4291 1 17.7499 15.3888 5.61944
4287 1 19.2106 16.2439 3.16719
4303 2 20.7347 17.1163 4.37524
4305 1 20.732 15.3868 5.60176
4301 1 22.2303 16.2583 3.19834
4317 2 23.7215 17.1122 4.37863
4319 1 23.7232 15.3831 5.60204
4315 1 25.2053 16.2579 3.19561
4331 2 26.7033 17.1148 4.37985
4333 1 26.7016 15.3919 5.60029
4329 1 28.2137 16.2376 3.15788
5607 1 -0.18505 20.5134 5.509
4206 2 1.30774 19.6479 4.27909
4208 1 1.27189 17.9229 5.49897
5621 1 2.81256 20.5452 5.50821
4220 2 4.30653 19.6589 4.31061
4222 1 4.3335 17.8983 5.53257
4232 1 5.75668 18.7831 3.11065
5635 1 5.80638 20.5237 5.52444
4234 2 7.28632 19.6672 4.3261
4236 1 7.26977 17.9206 5.5625
5649 1 8.76197 20.5429 5.59247
4248 6 10.2755 19.6716 4.27785
4250 1 10.2687 17.9335 5.59644
4260 1 11.8652 18.7842 3.06971
5663 1 11.8054 20.5628 5.64023
4262 2 13.2897 19.6914 4.37953
4264 1 13.2658 17.9671 5.61643
4274 1 14.7793 18.7964 3.14171
4288 1 17.7029 18.8818 3.14761
5677 1 14.7866 20.5914 5.58629
4276 2 16.2594 19.7192 4.38931
4278 1 16.2606 17.9806 5.60849
5691 1 17.7315 20.5953 5.63888
4290 2 19.2365 19.705 4.39962
4292 1 19.2412 17.9727 5.61372
5705 1 20.7316 20.5688 5.63587
4302 1 20.7286 18.8918 3.17791
4304 2 22.2279 19.6987 4.39173
4306 1 22.2272 17.969 5.59071
5719 1 23.7241 20.559 5.63932
4316 1 23.729 18.8797 3.17035
4318 2 25.2152 19.6981 4.38941
4320 1 25.2149 17.9689 5.61281
5733 1 26.7443 20.5612 5.59306
4330 1 26.7057 18.8301 3.19375
4332 2 28.1386 19.6633 4.32678
4334 1 28.2134 18.0057 5.58671
5605 2 -0.170422 22.2416 4.26887
5603 1 1.37417 21.3377 3.0717
5608 1 1.32137 23.1017 5.4976
5619 2 2.81888 22.2333 4.3016
5617 1 4.26518 21.3663 3.09855
5622 1 4.31778 23.1131 5.5409
5631 1 7.36624 21.4295 3.08821
5633 2 5.81567 22.2552 4.31463
5636 1 7.30254 23.1245 5.58833
5645 1 10.3129 21.431 3.096
5647 2 8.80624 22.2761 4.3575
5650 1 10.2919 23.131 5.60402
5661 2 11.7891 22.2839 4.37978
5659 1 13.2222 21.3911 3.15398
5664 1 13.3168 23.1331 5.58563
5675 2 14.6965 22.2399 4.3002
5673 1 16.3082 21.4342 3.2035
5678 5 16.2502 23.1213 5.50412
5687 1 19.2403 21.4269 3.1248
5689 2 17.8089 22.2595 4.33821
5692 1 19.2073 23.1433 5.6214
5701 1 22.23 21.3785 3.15108
5703 2 20.731 22.2882 4.3969
5706 1 22.2297 23.143 5.60141
5717 2 23.7218 22.2827 4.38217
5715 1 25.1605 21.3902 3.16688
5720 1 25.2239 23.1329 5.59676
5731 2 26.713 22.2739 4.37495
5729 1 28.1934 21.4016 3.22339
5734 1 28.2233 23.106 5.61059
7007 1 -0.170724 25.6948 5.52811
5604 1 -0.173321 24.033 3.06712
5606 2 1.32879 24.8328 4.29844
7017 1 4.32777 26.5441 3.07137
7021 1 2.81905 25.6967 5.54515
5618 1 2.83218 24.0318 3.08864
5620 2 4.32278 24.8328 4.31994
5632 1 5.88013 24.0011 3.08151
7031 1 7.27458 26.598 3.1079
7035 1 5.80681 25.7027 5.56335
5634 2 7.31597 24.8496 4.34511
7049 1 8.79736 25.7106 5.56965
5646 1 8.7849 23.9746 3.14905
7045 1 10.3089 26.6474 3.1464
5648 2 10.2976 24.8594 4.36163
7063 1 11.7808 25.7133 5.58815
5660 1 11.7854 24.0031 3.19919
7059 1 13.3372 26.532 3.16284
5662 2 13.2908 24.8494 4.38047
7073 1 16.265 26.5851 3.12863
7077 1 14.7841 25.686 5.6164
5674 1 14.7926 24.0381 3.1886
5676 2 16.266 24.9282 4.33465
7087 1 19.2087 26.6245 3.16354
7091 1 17.7355 25.6926 5.64415
5688 1 17.7831 24.0396 3.17741
5690 2 19.238 24.8685 4.40388
5702 1 20.6823 23.9775 3.18582
7105 1 20.7344 25.7325 5.61897
7101 1 22.2886 26.5571 3.18724
5704 2 22.2338 24.8701 4.39232
7115 1 25.2375 26.6093 3.14238
7119 1 23.729 25.7343 5.64394
5716 1 23.7268 24.0717 3.17687
5718 2 25.2207 24.8661 4.38974
7129 1 28.2028 26.5671 3.12953
7133 1 26.7198 25.7123 5.61465
5730 1 26.7115 24.0529 3.16592
5732 2 28.2081 24.8448 4.38262
7005 2 -0.156665 27.4235 4.30667
7008 1 1.32271 28.2967 5.55106
7019 2 2.82542 27.4243 4.32458
7022 1 4.30626 28.304 5.56927
7032 1 5.78957 29.1098 3.08585
7033 2 5.80481 27.4321 4.34228
7036 1 7.29242 28.3073 5.58433
7046 1 8.77366 29.157 3.09124
7047 2 8.79513 27.4399 4.35733
7050 1 10.275 28.3034 5.61149
7060 1 11.733 29.1824 3.13373
7061 2 11.7841 27.4416 4.36517
7064 1 13.2674 28.2939 5.59066
7074 1 14.8022 29.1701 3.14984
7075 2 14.7651 27.4296 4.38894
7078 1 16.2496 28.2954 5.62287
7088 1 17.7374 29.1716 3.15106
7102 1 20.6786 29.1762 3.14676
7089 2 17.7486 27.4422 4.41237
7092 1 19.237 28.3037 5.6437
7103 2 20.7376 27.4475 4.39145
7106 1 22.2336 28.3122 5.61766
7116 1 23.7834 29.1731 3.16918
7117 2 23.7334 27.4492 4.40033
7120 1 25.2413 28.3147 5.59308
7131 2 26.7232 27.3478 4.44427
7130 5 26.7059 29.1581 3.092
7134 1 28.2057 28.3037 5.58363
11 1 -0.124128 1.55104 7.98347
13 3 -0.161331 -0.149493 8.95732
9 2 1.32475 0.701146 6.73229
14 3 1.33812 2.41646 8.96409
25 1 2.82343 1.61196 7.97056
27 7 2.80717 -0.163699 8.97177
23 2 4.30437 0.693354 6.72356
28 3 4.31422 2.41817 8.95811
39 1 5.75159 1.5127 7.97598
41 3 5.80473 -0.197024 8.94099
37 2 7.29491 0.697923 6.72211
42 7 7.28818 2.42352 8.97177
53 1 8.78608 1.4923 7.9395
55 3 8.79097 -0.185897 8.93727
51 2 10.2837 0.699952 6.7116
56 7 10.2755 2.42352 8.97177
67 1 11.8178 1.49114 7.97102
69 3 11.7913 -0.181879 8.94908
65 2 13.2806 0.691358 6.70006
70 3 13.2814 2.37397 8.92974
81 1 14.7539 1.52036 7.95819
83 3 14.7505 -0.185099 8.93088
79 2 16.2806 0.70319 6.72504
84 7 16.2502 2.42352 8.97177
95 1 17.8326 1.60091 7.94211
97 7 17.7439 -0.163699 8.97177
93 2 19.2673 0.707625 6.71759
98 3 19.2954 2.41435 8.94666
109 1 20.7217 1.56561 7.92276
111 7 20.7312 -0.163699 8.97177
107 2 22.2529 0.674628 6.68004
112 7 22.2249 2.42352 8.97177
123 1 23.7232 1.51656 7.86937
125 7 23.7186 -0.163699 8.97177
121 2 25.1376 0.708664 6.71573
126 7 25.2123 2.42352 8.97177
137 1 26.6862 1.5073 7.83693
139 7 26.7059 -0.163699 8.97177
135 2 28.2303 0.725186 6.72249
140 7 28.1996 2.42352 8.97177
1413 7 -0.18018 5.01074 8.97177
10 2 -0.184179 3.29048 6.74509
12 1 1.30367 4.09071 7.96193
1427 7 2.80717 5.01074 8.97177
24 2 2.8117 3.29748 6.74214
26 1 4.35919 4.12545 7.9908
1441 3 5.80944 5.01637 8.96626
38 2 5.80492 3.28661 6.74514
40 1 7.29715 4.20797 7.9798
1455 3 8.75741 5.05186 8.9803
52 2 8.77031 3.29891 6.74304
54 1 10.1706 4.20851 7.98282
1469 7 11.7692 5.01074 8.97177
66 6 11.7692 3.28592 6.73038
68 1 13.3272 4.08008 7.98077
1483 7 14.7565 5.01074 8.97177
80 2 14.786 3.28113 6.72993
82 1 16.2641 4.15477 7.92147
1497 7 17.7439 5.01074 8.97177
94 2 17.7695 3.29892 6.74221
96 1 19.314 4.12751 7.99367
1511 3 20.7812 4.99498 8.96596
108 2 20.7613 3.29856 6.72395
110 1 22.2685 4.18107 7.98042
1525 3 23.7506 5.03742 8.94196
122 2 23.7316 3.27568 6.70788
124 1 25.2073 4.17299 7.95203
1539 3 26.6816 5.01428 8.93778
136 2 26.6861 3.26225 6.69891
138 1 28.1492 4.15984 7.95322
1553 3 29.6147 4.99437 8.95218
150 2 29.6532 3.27572 6.71329
1411 1 -0.144988 6.75288 7.96265
1410 2 -0.194824 8.46572 6.75715
1409 2 1.30584 5.88203 6.75041
1414 3 1.28492 7.60655 8.97648
1425 1 2.73902 6.78388 7.96741
1424 2 2.7952 8.47614 6.7546
1423 2 4.28882 5.8798 6.7539
1428 7 4.30084 7.59795 8.97177
1439 1 5.76623 6.68846 7.95919
1438 2 5.78308 8.47255 6.74992
1437 2 7.27924 5.89282 6.73847
1442 7 7.28818 7.59795 8.97177
1453 1 8.80936 6.73394 7.97636
1452 2 8.76923 8.47774 6.74777
1451 2 10.2695 5.89617 6.73888
1456 3 10.2595 7.60295 8.96799
1467 1 11.7239 6.78525 7.96789
1466 2 11.7702 8.4808 6.76911
1465 2 13.2691 5.87536 6.75873
1470 7 13.2629 7.59795 8.97177
1481 1 14.7543 6.70964 7.93927
1480 2 14.7698 8.46564 6.77128
1479 2 16.2578 5.8752 6.75128
1484 7 16.2502 7.59795 8.97177
1495 1 17.742 6.72803 7.94251
1494 2 17.7557 8.45998 6.76459
1493 2 19.2527 5.8767 6.77155
1498 7 19.2376 7.59795 8.97177
1508 2 20.6426 8.51269 6.8551
1509 1 20.7457 6.66986 7.96362
1507 2 22.2342 5.80202 6.80121
1512 7 22.2249 7.59795 8.97177
1523 1 23.7345 6.72453 7.94397
1522 2 23.7509 8.49098 6.82826
1521 2 25.1942 5.87285 6.70982
1526 3 25.1935 7.54948 8.96179
1537 1 26.6897 6.73288 7.97883
1536 2 26.6822 8.45727 6.7501
1535 2 28.1701 5.8636 6.72023
1540 3 28.1783 7.56421 8.9666
1551 1 29.6321 6.69511 7.97955
2813 3 -0.201792 10.1789 8.98616
2809 2 1.30838 11.0557 6.76399
1412 1 1.25835 9.309 8.00549
2827 7 2.80717 10.1852 8.97177
2823 2 4.29434 11.0636 6.74995
1426 1 4.30371 9.33567 7.92565
2841 7 5.79451 10.1852 8.97177
2837 2 7.27529 11.0635 6.75673
1440 1 7.30594 9.35119 7.95994
2855 3 8.75171 10.1783 8.97427
2851 2 10.2745 11.064 6.77701
1454 1 10.2246 9.31372 8.00644
2869 7 11.7692 10.1852 8.97177
2865 2 13.2691 11.0609 6.76663
1468 1 13.3393 9.35697 7.98714
2883 3 14.7823 10.2079 8.99171
2879 2 16.2536 11.0602 6.76151
1482 1 16.261 9.37004 8.01274
2897 3 17.7307 10.2126 9.00423
2893 2 19.2349 11.0578 6.77267
1496 1 19.2081 9.3651 8.02652
2911 3 20.6905 10.1932 9.00556
2907 2 22.2131 11.0473 6.79464
1510 1 22.1267 9.34614 7.98628
2925 7 23.7186 10.1852 8.97177
2921 2 25.199 11.0417 6.78601
1524 1 25.1873 9.24303 7.98997
2939 7 26.7059 10.1852 8.97177
2935 2 28.1765 11.042 6.77242
1538 1 28.2384 9.27731 8.00802
2811 1 -0.171726 11.855 7.98583
2810 2 -0.192524 13.6474 6.76552
2812 1 1.28513 14.5511 7.99332
2814 7 1.31349 12.7724 8.97177
2825 1 2.81564 11.9153 7.92957
2824 2 2.79837 13.6437 6.75103
2826 1 4.23336 14.532 7.95742
2828 7 4.30084 12.7724 8.97177
2839 1 5.81423 11.9409 7.98181
2838 2 5.78099 13.5752 6.82564
2840 1 7.2574 14.4405 7.96976
2842 3 7.27204 12.7685 8.97875
2853 1 8.73595 11.8899 8.01337
2852 2 8.76526 13.6453 6.77244
2854 1 10.2562 14.5056 7.95459
2856 7 10.2755 12.7724 8.97177
2867 1 11.8165 11.9507 7.98599
2866 2 11.7647 13.6507 6.78016
2868 1 13.248 14.4575 8.01186
2870 3 13.2678 12.7734 8.99813
2881 1 14.7556 11.9233 8.0276
2880 2 14.7562 13.6504 6.7905
2882 1 16.2492 14.4401 8.0283
2884 3 16.2437 12.7549 9.0137
2895 1 17.7344 11.9227 8.03203
2894 2 17.7463 13.648 6.80312
2896 1 19.2505 14.4395 8.03892
2898 3 19.2281 12.7465 9.01436
2909 1 20.6933 11.892 8.02892
2908 2 20.7349 13.6417 6.80693
2910 1 22.2268 14.4973 7.98969
2912 7 22.2249 12.7724 8.97177
2923 1 23.7789 11.9304 8.00962
2922 2 23.7191 13.64 6.80355
2924 1 25.205 14.4561 8.02389
2926 3 25.2243 12.7752 9.01353
2937 1 26.6951 11.944 8.02026
2936 2 26.698 13.6439 6.79756
2938 1 28.1947 14.4376 8.02355
2940 3 28.179 12.7558 9.01292
4213 3 -0.203093 15.3859 8.96419
4209 2 1.2948 16.2168 6.73935
4225 1 2.79723 16.9881 7.98885
4227 3 2.78198 15.342 8.98225
4223 2 4.23593 16.2292 6.80386
4239 1 5.79686 17.0392 7.91758
4241 7 5.79451 15.3596 8.97177
4237 2 7.35069 16.2504 6.8374
4253 1 8.8062 17.096 8.00811
4255 7 8.78186 15.3596 8.97177
4251 2 10.2636 16.2405 6.7826
4267 1 11.7059 17.1251 8.03122
4269 7 11.7692 15.3596 8.97177
4265 2 13.2577 16.2383 6.83065
4281 1 14.7968 17.1127 8.0439
4283 7 14.7565 15.3596 8.97177
4279 2 16.2527 16.2423 6.83834
4295 1 17.6936 17.1361 8.05964
4297 7 17.7439 15.3596 8.97177
4293 2 19.2394 16.2401 6.85023
4309 1 20.7743 17.1176 8.04949
4311 7 20.7312 15.3596 8.97177
4307 2 22.2271 16.2378 6.82552
4323 1 23.6813 17.1191 8.04577
4325 7 23.7186 15.3596 8.97177
4321 2 25.2165 16.2423 6.83967
4337 1 26.7672 17.1323 8.03891
4339 7 26.7059 15.3596 8.97177
4335 2 28.1981 16.2463 6.82567
4351 1 29.6489 17.1188 8.04645
5613 7 -0.18018 20.534 8.97177
4210 2 -0.196915 18.796 6.73079
4212 1 1.34423 19.7083 7.96593
4214 7 1.31349 17.9468 8.97177
5627 3 2.80535 20.5343 8.95818
4224 6 2.80717 18.8092 6.73038
4226 1 4.34435 19.7353 8.0382
4228 7 4.30084 17.9468 8.97177
5641 3 5.7971 20.5604 9.01904
4238 2 5.79344 18.7885 6.77159
4240 1 7.26009 19.7023 8.03175
4242 7 7.28818 17.9468 8.97177
5655 3 8.74321 20.5141 9.02484
4252 2 8.76098 18.8027 6.80424
4254 1 10.2183 19.6494 8.06295
4256 3 10.2385 17.9427 9.02682
5669 7 11.7692 20.534 8.97177
4266 2 11.7683 18.8236 6.83727
4268 1 13.3096 19.7124 8.03633
4270 7 13.2629 17.9468 8.97177
5683 3 14.7447 20.559 9.04863
4280 2 14.7598 18.8331 6.82855
4282 1 16.2132 19.678 8.09059
4284 3 16.2315 17.9677 9.0516
5697 7 17.7439 20.534 8.97177
4294 2 17.7469 18.8421 6.84134
4296 1 19.2363 19.695 8.01969
4298 7 19.2376 17.9468 8.97177
5711 7 20.7312 20.534 8.97177
4308 2 20.7333 18.8283 6.83967
4310 1 22.2311 19.6234 8.05866
4312 3 22.2289 17.9453 9.05209
5725 7 23.7186 20.534 8.97177
4322 2 23.7258 18.8255 6.84348
4324 1 25.2821 19.7153 8.04681
4326 7 25.2123 17.9468 8.97177
5739 3 26.7368 20.5484 9.0446
4336 2 26.7227 18.8393 6.82035
4338 1 28.2238 19.7201 8.04991
4340 3 28.2096 18.0052 9.0224
5611 1 -0.169849 22.2841 7.97041
5609 2 1.30969 21.3898 6.73833
5614 3 1.29921 23.1052 8.97673
5625 1 2.75825 22.2379 7.99098
5623 2 4.31378 21.3987 6.76293
5628 7 4.30084 23.1213 8.97177
5639 1 5.79793 22.2124 7.98399
5637 2 7.30011 21.3856 6.78227
5642 7 7.28818 23.1213 8.97177
5653 1 8.79477 22.1896 8.02432
5651 2 10.2858 21.4001 6.83298
5656 7 10.2755 23.1213 8.97177
5667 1 11.8301 22.3005 8.03347
5665 2 13.2751 21.4107 6.81445
5670 3 13.2917 23.1122 9.03923
5681 1 14.7486 22.2475 8.04804
5679 2 16.2612 21.3466 6.91573
5684 7 16.2502 23.1213 8.97177
5695 1 17.8047 22.3291 8.05154
5693 2 19.2405 21.4294 6.85075
5698 3 19.2564 23.1527 9.06496
5709 1 20.7477 22.3302 8.0926
5707 2 22.2295 21.4177 6.85765
5712 3 22.2287 23.1722 9.06706
5723 1 23.7107 22.3348 8.09098
5721 2 25.2192 21.4141 6.83762
5726 3 25.2153 23.1338 9.06565
5737 1 26.6691 22.2556 8.08181
5735 2 28.1356 21.4696 6.89728
5740 7 28.1996 23.1213 8.97177
7013 3 -0.175774 25.6571 8.97059
5610 2 -0.172815 23.9664 6.73955
7009 2 1.31635 26.556 6.76742
5612 1 1.33482 24.8263 8.01903
7027 3 2.81343 25.6961 8.99006
5624 2 2.82155 23.9701 6.76051
7023 2 4.30559 26.5726 6.78502
5626 1 4.31952 24.8897 8.02515
7041 3 5.79305 25.7335 9.00938
5638 2 5.80519 23.9811 6.79556
7037 2 7.29048 26.5809 6.8019
5640 1 7.29075 24.8988 8.05302
7055 3 8.76955 25.7387 9.03282
5652 2 8.79014 23.9855 6.82446
7051 2 10.2758 26.5824 6.82116
5654 1 10.2656 24.909 8.07086
7069 3 11.7685 25.7139 9.0471
5666 2 11.7797 23.99 6.82101
7065 2 13.2702 26.5718 6.82313
5668 1 13.2594 24.8423 8.09595
5680 2 14.7058 24.0249 6.89504
7083 3 14.7437 25.7139 9.05486
7079 2 16.2504 26.5708 6.84961
5682 1 16.187 24.8705 8.04483
7097 7 17.7439 25.7085 8.97177
5694 2 17.8098 24.0381 6.91512
7093 2 19.238 26.5869 6.85852
5696 1 19.2418 24.8317 8.07264
7111 7 20.7312 25.7085 8.97177
5708 2 20.736 24.0105 6.842
7107 2 22.2354 26.5984 6.85411
5710 1 22.2318 24.8387 8.05496
7125 7 23.7186 25.7085 8.97177
5722 2 23.7253 24.0096 6.84446
7121 2 25.2223 26.5931 6.84806
5724 1 25.2659 24.8327 8.08622
7139 3 26.7187 25.7194 9.05797
5736 2 26.7238 23.9939 6.83633
7135 2 28.2234 26.5904 6.8357
5738 1 28.1738 24.9016 8.04649
7011 1 -0.198102 27.3425 7.98244
7010 2 -0.174257 29.1569 6.75388
7014 7 1.31349 28.2957 8.97177
7025 1 2.79694 27.373 7.99216
7024 2 2.79775 29.165 6.77124
7028 7 4.30084 28.2957 8.97177
7039 1 5.78625 27.4068 8.00734
7038 2 5.78271 29.1724 6.79595
7042 7 7.28818 28.2957 8.97177
7053 1 8.77076 27.4074 8.02416
7052 2 8.77347 29.1704 6.82194
7056 7 10.2755 28.2957 8.97177
7067 1 11.8072 27.4105 8.06486
7066 2 11.7604 29.156 6.83652
7070 3 13.2528 28.2835 9.06104
7081 1 14.7527 27.4389 8.10206
7080 2 14.7538 29.163 6.84657
7084 3 16.2376 28.3008 9.06665
7095 1 17.7012 27.4752 8.0738
7094 2 17.7436 29.17 6.86319
7098 7 19.2376 28.2957 8.97177
7109 1 20.7425 27.4415 8.02639
7108 2 20.7378 29.1758 6.84799
7112 7 22.2249 28.2957 8.97177
7123 1 23.7835 27.5129 8.0622
7122 2 23.7408 29.1832 6.84944
7126 3 25.2591 28.3228 9.05153
7136 2 26.7388 29.1653 6.81815
7137 1 26.6937 27.4153 8.07135
7140 7 28.1996 28.2957 8.97177
8401 7 -0.18018 30.8829 2.03646
8403 1 1.33996 31.8059 3.05109
8415 7 2.80717 30.8829 2.03646
8429 7 5.79451 30.8829 2.03646
8443 3 8.84008 30.8832 2.14437
8457 3 11.7784 30.8787 2.14983
8471 3 14.7546 30.8647 2.16735
8485 3 17.7166 30.8752 2.16375
8499 3 20.6983 30.8729 2.16
8513 3 23.7433 30.8461 2.15119
8527 3 26.6706 30.9424 2.09444
8402 3 1.32652 33.4745 2.03953
8404 1 -0.168144 34.3542 2.97338
8416 7 4.30084 33.4701 2.03646
8418 1 2.77969 34.2985 3.04726
8430 7 7.28818 33.4701 2.03646
8444 3 10.2691 33.4271 2.09986
8458 7 13.2629 33.4701 2.03646
8472 7 16.2502 33.4701 2.03646
8486 3 19.2244 33.4645 2.13602
8500 3 22.1953 33.419 2.11891
8514 7 25.2123 33.4701 2.03646
8528 3 28.2143 33.3943 2.09141
9801 3 -0.159016 36.0836 2.02494
9802 3 1.42449 38.5712 1.96535
9803 1 1.28592 36.9505 3.02516
9815 7 2.80717 36.0573 2.03646
9816 3 4.32538 38.623 2.03602
9817 1 4.38771 36.9255 3.01439
9829 3 5.85382 36.0393 2.05666
9830 7 7.28818 38.6446 2.03646
9831 1 7.34564 36.8453 3.0396
9843 3 8.84793 36.0081 2.09039
9844 3 10.3187 38.5898 2.09024
9857 3 11.7771 36.1298 2.06251
9858 3 13.2683 38.5681 2.09919
9871 7 14.7565 36.0573 2.03646
9872 3 16.2501 38.5953 2.10209
9885 3 17.7753 36.0348 2.1187
9886 7 19.2376 38.6446 2.03646
9899 3 20.714 36.0155 2.1161
9900 7 22.2249 38.6446 2.03646
9913 7 23.7186 36.0573 2.03646
9914 3 25.2223 38.6828 2.08637
9927 7 26.7059 36.0573 2.03646
9928 7 28.1996 38.6446 2.03646
11201 3 -0.169661 41.2478 2.01612
11215 7 2.80717 41.2318 2.03646
9818 1 2.82223 39.4402 2.99813
11229 7 5.79451 41.2318 2.03646
9832 1 5.76188 39.4908 3.03391
11243 7 8.78186 41.2318 2.03646
9846 1 8.87043 39.473 3.05947
11257 7 11.7692 41.2318 2.03646
9860 1 11.7969 39.4477 3.05289
11271 7 14.7565 41.2318 2.03646
9874 1 14.7515 39.4227 3.062
11285 7 17.7439 41.2318 2.03646
11299 3 20.7718 41.2532 2.08537
11313 3 23.7478 41.2227 2.09651
11327 7 26.7059 41.2318 2.03646
11202 7 1.31349 43.819 2.03646
11204 1 -0.174804 44.6873 3.04325
11203 1 1.27457 42.0483 3.02121
11216 7 4.30084 43.819 2.03646
11218 1 2.82423 44.7485 3.0047
11217 1 4.31392 42.1094 3.05573
11230 7 7.28818 43.819 2.03646
11232 1 5.8268 44.6734 3.06318
11244 7 10.2755 43.819 2.03646
11258 3 13.2879 43.8287 2.06346
11260 1 11.8254 44.6994 3.03511
11272 7 16.2502 43.819 2.03646
11286 3 19.2897 43.8549 2.07436
11288 1 17.808 44.6949 3.0484
11287 1 19.3119 42.1466 3.04505
11300 7 22.2249 43.819 2.03646
11302 1 20.7409 44.7331 3.05627
11314 7 25.2123 43.819 2.03646
11328 7 28.1996 43.819 2.03646
12601 7 -0.18018 46.4062 2.03646
12603 1 1.35552 47.253 3.02274
12615 3 2.81093 46.4323 2.01609
12617 1 4.27362 47.2889 3.00023
12629 7 5.79451 46.4062 2.03646
12631 1 7.31281 47.3137 3.03617
12643 7 8.78186 46.4062 2.03646
12645 1 10.3579 47.2294 3.03498
12657 3 11.8206 46.3937 2.04894
12659 1 13.2501 47.2551 3.05818
12671 7 14.7565 46.4062 2.03646
12673 1 16.3421 47.2332 3.06249
12685 3 17.7984 46.3919 2.06761
12687 1 19.2537 47.2481 3.06115
12699 3 20.736 46.4311 2.07362
12701 1 22.2061 47.3069 3.03965
12713 7 23.7186 46.4062 2.03646
12727 3 26.7627 46.4288 2.10077
12729 1 28.246 47.3078 3.05258
12602 7 1.31349 48.9934 2.03646
12604 1 -0.157979 49.8607 3.06322
12616 3 4.31034 48.9869 2.02136
12618 1 2.87408 49.8519 3.02188
12630 3 7.28287 48.9818 2.02647
12632 1 5.79742 49.8161 2.9967
12646 1 8.72835 49.8293 3.02746
12644 7 10.2755 48.9934 2.03646
12658 7 13.2629 48.9934 2.03646
12660 1 11.7821 49.9292 3.04669
12672 7 16.2502 48.9934 2.03646
12686 7 19.2376 48.9934 2.03646
12700 3 22.2398 49.0149 2.0737
12714 7 25.2123 48.9934 2.03646
12716 1 23.703 49.8781 3.0564
12728 3 28.2313 49.0448 2.11291
14001 7 -0.18018 51.5806 2.03646
14015 7 2.80717 51.5806 2.03646
14017 1 4.30546 52.539 3.0228
14029 7 5.79451 51.5806 2.03646
14043 7 8.78186 51.5806 2.03646
14045 1 10.3338 52.4339 3.04471
14057 3 11.7892 51.6032 2.04691
14059 1 13.2366 52.4318 3.0583
14071 7 14.7565 51.5806 2.03646
14073 1 16.3091 52.4314 3.05953
14085 3 17.7636 51.5972 2.06259
14087 1 19.2157 52.4336 3.061
14099 7 20.7312 51.5806 2.03646
14101 1 22.3135 52.4379 3.06225
14113 3 23.7792 51.5848 2.09418
14127 3 26.6546 51.541 2.05943
15401 3 -0.21069 56.754 2.02983
14002 7 1.31349 54.1679 2.03646
15415 3 2.81649 56.7452 2.03324
14016 3 4.30219 54.2219 2.03091
14018 1 2.82904 55.0518 3.02094
15429 3 5.77192 56.7597 2.04309
14030 7 7.28818 54.1679 2.03646
14032 1 5.76528 55.0635 3.02623
14044 7 10.2755 54.1679 2.03646
14046 1 8.79799 55.1187 3.04294
15457 7 11.7692 56.7551 2.03646
14058 7 13.2629 54.1679 2.03646
15471 7 14.7565 56.7551 2.03646
14072 7 16.2502 54.1679 2.03646
15485 7 17.7439 56.7551 2.03646