ITEM: TIMESTEP
0
ITEM: NUMBER OF ATOMS
81200
ITEM: BOX BOUNDS pp pp pp
2.8749853218158322e-01 2.9801199736385007e+02
2.7976772167126129e-01 2.9936794425250019e+02
0.0000000000000000e+00 4.9031656433928198e+01
ITEM: ATOMS id type x y z
1 7 0.324714 0.350574 2.03646
2 7 1.81334 2.92892 2.03646
15 7 3.30196 0.350574 2.03646
16 7 4.79058 2.92892 2.03646
29 7 6.2792 0.350574 2.03646
30 7 7.76783 2.92892 2.03646
43 7 9.25645 0.350574 2.03646
44 7 10.7451 2.92892 2.03646
57 7 12.2337 0.350574 2.03646
58 7 13.7223 2.92892 2.03646
71 7 15.2109 0.350574 2.03646
72 7 16.6996 2.92892 2.03646
85 7 18.1882 0.350574 2.03646
86 7 19.6768 2.92892 2.03646
99 7 21.1654 0.350574 2.03646
100 7 22.6541 2.92892 2.03646
113 7 24.1427 0.350574 2.03646
114 7 25.6313 2.92892 2.03646
127 7 27.1199 0.350574 2.03646
128 7 28.6085 2.92892 2.03646
1401 7 0.324714 5.50727 2.03646
1415 7 3.30196 5.50727 2.03646
1429 7 6.2792 5.50727 2.03646
1443 7 9.25645 5.50727 2.03646
1457 7 12.2337 5.50727 2.03646
1471 7 15.2109 5.50727 2.03646
1485 7 18.1882 5.50727 2.03646
1499 7 21.1654 5.50727 2.03646
1513 7 24.1427 5.50727 2.03646
1527 7 27.1199 5.50727 2.03646
1402 7 1.81334 8.08561 2.03646
1416 7 4.79058 8.08561 2.03646
1430 7 7.76783 8.08561 2.03646
1444 7 10.7451 8.08561 2.03646
1458 7 13.7223 8.08561 2.03646
1472 7 16.6996 8.08561 2.03646
1486 7 19.6768 8.08561 2.03646
1500 7 22.6541 8.08561 2.03646
1514 7 25.6313 8.08561 2.03646
1528 7 28.6085 8.08561 2.03646
2801 7 0.324714 10.664 2.03646
2815 7 3.30196 10.664 2.03646
2829 7 6.2792 10.664 2.03646
2843 7 9.25645 10.664 2.03646
2857 7 12.2337 10.664 2.03646
2871 7 15.2109 10.664 2.03646
2885 7 18.1882 10.664 2.03646
2899 7 21.1654 10.664 2.03646
2913 7 24.1427 10.664 2.03646
2927 7 27.1199 10.664 2.03646
2802 7 1.81334 13.2423 2.03646
2816 7 4.79058 13.2423 2.03646
2830 7 7.76783 13.2423 2.03646
2844 7 10.7451 13.2423 2.03646
2858 7 13.7223 13.2423 2.03646
2872 7 16.6996 13.2423 2.03646
2886 7 19.6768 13.2423 2.03646
2900 7 22.6541 13.2423 2.03646
2914 7 25.6313 13.2423 2.03646
2928 7 28.6085 13.2423 2.03646
4201 7 0.324714 15.8207 2.03646
4215 7 3.30196 15.8207 2.03646
4229 7 6.2792 15.8207 2.03646
4243 7 9.25645 15.8207 2.03646
4257 7 12.2337 15.8207 2.03646
4271 7 15.2109 15.8207 2.03646
4285 7 18.1882 15.8207 2.03646
4299 7 21.1654 15.8207 2.03646
4313 7 24.1427 15.8207 2.03646
4327 7 27.1199 15.8207 2.03646
5601 7 0.324714 20.9773 2.03646
4202 7 1.81334 18.399 2.03646
5615 7 3.30196 20.9773 2.03646
4216 7 4.79058 18.399 2.03646
5629 7 6.2792 20.9773 2.03646
4230 7 7.76783 18.399 2.03646
5643 7 9.25645 20.9773 2.03646
4244 7 10.7451 18.399 2.03646
5657 7 12.2337 20.9773 2.03646
4258 7 13.7223 18.399 2.03646
5671 7 15.2109 20.9773 2.03646
4272 7 16.6996 18.399 2.03646
5685 7 18.1882 20.9773 2.03646
4286 7 19.6768 18.399 2.03646
5699 7 21.1654 20.9773 2.03646
4300 7 22.6541 18.399 2.03646
5713 7 24.1427 20.9773 2.03646
4314 7 25.6313 18.399 2.03646
5727 7 27.1199 20.9773 2.03646
4328 7 28.6085 18.399 2.03646
5602 7 1.81334 23.5557 2.03646
5616 7 4.79058 23.5557 2.03646
5630 7 7.76783 23.5557 2.03646
5644 7 10.7451 23.5557 2.03646
5658 7 13.7223 23.5557 2.03646
5672 7 16.6996 23.5557 2.03646
5686 7 19.6768 23.5557 2.03646
5700 7 22.6541 23.5557 2.03646
5714 7 25.6313 23.5557 2.03646
5728 7 28.6085 23.5557 2.03646
7001 7 0.324714 26.134 2.03646
7015 7 3.30196 26.134 2.03646
7029 7 6.2792 26.134 2.03646
7043 7 9.25645 26.134 2.03646
7057 7 12.2337 26.134 2.03646
7071 7 15.2109 26.134 2.03646
7085 7 18.1882 26.134 2.03646
7099 7 21.1654 26.134 2.03646
7113 7 24.1427 26.134 2.03646
7127 7 27.1199 26.134 2.03646
7002 7 1.81334 28.7124 2.03646
7016 7 4.79058 28.7124 2.03646
7030 7 7.76783 28.7124 2.03646
7044 7 10.7451 28.7124 2.03646
7058 7 13.7223 28.7124 2.03646
7072 7 16.6996 28.7124 2.03646
7086 7 19.6768 28.7124 2.03646
7100 7 22.6541 28.7124 2.03646
7114 7 25.6313 28.7124 2.03646
7128 7 28.6085 28.7124 2.03646
5 6 0.324714 2.06947 4.27785
7 1 0.334438 0.359535 5.51905
3 1 1.84474 1.21403 3.10925
8 1 1.86638 2.94217 5.52355
19 2 3.30601 2.10076 4.31092
21 1 3.29746 0.372523 5.53227
17 1 4.78902 1.2697 3.09757
22 1 4.79762 2.94689 5.52119
33 2 6.28825 2.09393 4.28799
35 1 6.28924 0.360964 5.51288
31 1 7.77999 1.22704 3.10158
36 1 7.78007 2.96682 5.50075
47 2 9.28365 2.09095 4.29048
49 1 9.29436 0.351449 5.49723
45 1 10.764 1.22439 3.104
50 1 10.7425 2.9303 5.49297
61 2 12.2566 2.07969 4.28368
63 1 12.255 0.361372 5.51436
59 1 13.7503 1.22383 3.10727
64 1 13.7673 2.92761 5.50307
75 2 15.2301 2.08713 4.30442
77 1 15.2367 0.363769 5.52475
73 1 16.7347 1.22049 3.1171
78 1 16.7238 2.94081 5.52567
89 2 18.2191 2.08156 4.29677
91 1 18.2032 0.352263 5.51079
87 1 19.723 1.22534 3.11792
92 1 19.7038 2.95974 5.52144
103 2 21.1916 2.08844 4.31723
105 1 21.2286 0.335571 5.52079
101 1 22.6819 1.26004 3.14662
106 1 22.6723 2.93156 5.55832
119 1 24.0994 0.361266 5.56247
117 2 24.1615 2.09139 4.34494
115 1 25.6586 1.26787 3.16961
120 1 25.6497 2.93506 5.538
131 2 27.1136 2.16735 4.26405
133 5 27.1199 0.350574 5.50412
129 1 28.583 1.20195 3.14996
134 1 28.5846 2.91482 5.53505
147 1 30.0427 0.391633 5.52863
1407 1 0.333418 5.55802 5.51681
4 1 0.325364 3.86598 3.10259
6 2 1.82633 4.68123 4.29861
1421 1 3.31417 5.52745 5.52443
18 1 3.3101 3.80863 3.10984
20 2 4.8 4.66902 4.29659
1435 1 6.29058 5.522 5.52915
32 1 6.28545 3.80445 3.10751
34 2 7.77894 4.65461 4.30393
1449 1 9.26935 5.52142 5.5228
46 1 9.27079 3.80582 3.10823
48 2 10.7606 4.66514 4.28799
1463 1 12.2533 5.54378 5.50745
60 1 12.2577 3.80437 3.10239
62 2 13.7504 4.66221 4.29167
1477 1 15.2372 5.51836 5.52662
74 1 15.243 3.80271 3.11432
76 2 16.7379 4.66371 4.31106
1491 1 18.1922 5.50059 5.52517
88 1 18.2313 3.80208 3.12081
90 2 19.6975 4.64047 4.33253
1505 1 21.1998 5.5329 5.58674
102 1 21.1735 3.79261 3.13492
104 6 22.6541 4.64782 4.27785
1519 1 24.1512 5.55182 5.57972
116 1 24.1827 3.77689 3.13136
118 2 25.6273 4.642 4.34174
1533 1 27.1089 5.50949 5.53724
130 1 27.1004 3.80067 3.12143
132 2 28.6062 4.65777 4.3195
1405 2 0.33139 7.24505 4.32394
1404 1 0.323906 8.97675 3.13915
1403 1 1.81485 6.39409 3.12078
1408 1 1.82721 8.10924 5.54384
1419 2 3.31248 7.2524 4.30798
1418 1 3.3102 8.98103 3.13004
1417 1 4.8001 6.39518 3.11756
1422 1 4.80376 8.10524 5.54049
1433 2 6.29134 7.24787 4.3086
1432 1 6.29161 8.97491 3.13034
1431 1 7.77915 6.38745 3.11864
1436 1 7.78132 8.10256 5.53877
1447 2 9.27011 7.24423 4.30598
1446 1 9.27034 8.9686 3.1276
1445 1 10.7636 6.38546 3.11676
1450 1 10.7611 8.09814 5.53701
1461 2 12.2543 7.22961 4.31429
1460 1 12.2552 8.95857 3.12763
1459 1 13.7476 6.38058 3.11796
1464 1 13.745 8.09381 5.53734
1475 2 15.239 7.2357 4.30701
1474 1 15.2465 8.9511 3.1232
1473 1 16.739 6.38047 3.12039
1478 1 16.7264 8.08839 5.54117
1489 2 18.2087 7.22529 4.32624
1488 1 18.2005 8.92548 3.13796
1487 1 19.6602 6.34363 3.12234
1492 1 19.7253 8.0908 5.58586
1503 6 21.1654 7.22616 4.27785
1502 1 21.2507 8.91717 3.23999
1501 1 22.667 6.45925 3.25307
1506 5 22.6541 8.08561 5.50412
1517 2 24.2148 7.22139 4.31599
1516 1 24.1177 8.93788 3.16271
1515 1 25.6077 6.37231 3.13624
1520 1 25.571 8.07317 5.52942
1531 2 27.1035 7.23288 4.31319
1530 1 27.0967 8.95616 3.13302
1529 1 28.5934 6.37841 3.12832
1534 1 28.6122 8.08302 5.51943
2807 1 0.337151 10.6653 5.57169
2803 1 1.86634 11.5306 3.14007
1406 2 1.82979 9.82417 4.32887
2821 1 3.32201 10.688 5.55623
2817 1 4.80019 11.558 3.14361
1420 2 4.80433 9.83225 4.32146
2835 1 6.29315 10.6895 5.55024
2831 1 7.77821 11.5568 3.14228
1434 2 7.78039 9.82912 4.31911
2849 1 9.26787 10.6837 5.547
2845 1 10.7601 11.5409 3.1359
1448 2 10.7615 9.82036 4.31621
2863 1 12.2518 10.6736 5.54423
2859 1 13.745 11.5328 3.13155
1462 2 13.7459 9.81285 4.31297
2877 1 15.2356 10.6663 5.54248
2873 1 16.7307 11.524 3.12974
1476 2 16.7221 9.80424 4.31989
2891 1 18.1991 10.6635 5.55951
2887 1 19.7142 11.5425 3.13402
1490 6 19.6768 9.80451 4.27785
2905 1 21.2177 10.6368 5.5771
2901 1 22.655 11.5214 3.13912
1504 2 22.6829 9.87847 4.30346
2919 1 24.1254 10.6345 5.55648
2915 1 25.6197 11.5299 3.15247
1518 2 25.6127 9.80666 4.32453
2933 1 27.109 10.6918 5.53885
2929 1 28.5968 11.5497 3.14534
1532 2 28.5944 9.81986 4.31222
2805 6 0.324714 12.3829 4.27785
2804 1 0.339917 14.1498 3.12783
2806 2 1.83316 14.9833 4.33148
2808 1 1.87839 13.2642 5.55004
2819 2 3.32512 12.4137 4.34442
2818 1 3.31919 14.1258 3.13433
2820 2 4.74458 14.9444 4.28315
2822 1 4.82328 13.2943 5.55506
2833 2 6.29197 12.4172 4.33162
2832 1 6.29417 14.1454 3.16921
2834 2 7.84332 14.9376 4.29152
2836 1 7.76125 13.2893 5.55784
2847 2 9.26507 12.4031 4.33027
2846 1 9.27057 14.1219 3.14119
2848 2 10.7525 14.9724 4.33949
2850 1 10.7545 13.2538 5.55416
2861 2 12.2504 12.3942 4.32159
2860 1 12.2475 14.1167 3.14272
2862 2 13.7423 14.9748 4.32838
2864 1 13.741 13.2471 5.54632
2875 2 15.2424 12.3905 4.31992
2874 1 15.2276 14.1098 3.12764
2876 2 16.7128 14.9643 4.29293
2878 1 16.7018 13.2268 5.51227
2889 2 18.2214 12.3847 4.3174
2888 1 18.2151 14.0987 3.11716
2890 2 19.6835 14.9769 4.305
2892 1 19.6931 13.2164 5.50888
2903 2 21.1717 12.3835 4.33187
2902 1 21.1743 14.1028 3.1285
2904 2 22.6671 14.9699 4.31784
2906 1 22.6755 13.2243 5.53388
2917 2 24.1336 12.3879 4.3414
2916 1 24.1516 14.1129 3.14734
2918 2 25.6386 14.9751 4.34043
2920 1 25.6258 13.244 5.56476
2931 2 27.1122 12.3832 4.34631
2930 1 27.1271 14.1204 3.15894
2932 2 28.6005 14.9821 4.35834
2934 1 28.6005 13.2516 5.57644
4205 2 0.329541 17.5262 4.34487
4203 1 1.83197 16.672 3.14732
4207 1 0.29324 15.852 5.5294
4219 2 3.31375 17.5291 4.33826
4221 1 3.34328 15.8273 5.55007
4217 1 4.80137 16.6711 3.1695
4233 6 6.2792 17.5395 4.27785
4235 5 6.2792 15.8207 5.50412
4231 1 7.80207 16.6575 3.17903
4247 2 9.26308 17.5155 4.38103
4249 1 9.23458 15.8202 5.57726
4245 1 10.7339 16.69 3.16143
4261 2 12.2397 17.5377 4.34671
4263 1 12.243 15.8247 5.5616
4259 1 13.7229 16.6985 3.14033
4275 2 15.2163 17.5518 4.31732
4277 1 15.2009 15.8112 5.51839
4273 1 16.7096 16.6928 3.1219
4289 2 18.2025 17.5443 4.3149
4291 1 18.2209 15.8426 5.48874
4287 1 19.6909 16.6934 3.13
4303 2 21.1811 17.5434 4.33073
4305 1 21.1776 15.8584 5.51814
4301 1 22.6735 16.6949 3.14202
4317 2 24.1599 17.5541 4.34429
4319 1 24.1508 15.8269 5.56044
4315 1 25.6521 16.711 3.16097
4331 2 27.1319 17.561 4.37036
4333 1 27.1238 15.8352 5.58074
4329 1 28.6152 16.719 3.18232
5607 1 0.321175 20.9488 5.54323
4204 1 0.332546 19.2344 3.14782
4206 2 1.81997 20.0975 4.32584
4208 1 1.78836 18.3719 5.5394
5621 1 3.31207 20.978 5.55191
4218 1 3.33334 19.2387 3.1544
4220 2 4.79982 20.1063 4.35909
4222 1 4.8226 18.3598 5.57164
5635 1 6.2764 20.9756 5.59778
4232 1 6.28684 19.2573 3.18006
4234 6 7.76783 20.1179 4.27785
4236 1 7.78564 18.3404 5.64299
5649 1 9.26658 20.9896 5.6206
4246 1 9.24983 19.2113 3.19558
4248 6 10.7451 20.1179 4.27785
4250 1 10.7529 18.3641 5.60789
5663 1 12.272 20.9913 5.59395
4260 1 12.2488 19.2394 3.15332
4262 2 13.7381 20.1217 4.34812
4264 1 13.7366 18.4057 5.56271
5677 1 15.2409 21.008 5.564
4274 1 15.2099 19.273 3.14858
4276 2 16.7082 20.1243 4.34341
4278 1 16.7119 18.4329 5.53163
5691 1 18.1771 21.0126 5.56277
4288 1 18.1955 19.2776 3.14597
4290 2 19.6844 20.1295 4.33717
4292 1 19.6864 18.4129 5.54678
5705 1 21.169 20.9843 5.57101
4302 1 21.1857 19.2715 3.14952
4304 2 22.6708 20.1277 4.34834
4306 1 22.6655 18.4071 5.5665
5719 1 24.1569 20.9817 5.59075
4316 1 24.174 19.276 3.16618
4318 2 25.6485 20.1355 4.38024
4320 1 25.6443 18.4106 5.58926
5733 1 27.1394 21.0005 5.63845
4330 1 27.1163 19.2847 3.18025
4332 6 28.6085 20.1179 4.27785
4334 1 28.6299 18.4174 5.62392
5605 2 0.335394 22.6723 4.31891
5603 1 1.83107 21.8153 3.14861
5608 1 1.84608 23.5226 5.54014
5619 2 3.30894 22.671 4.35457
5617 1 4.81107 21.8124 3.16357
5622 1 4.80541 23.5403 5.57111
5633 2 6.29195 22.6891 4.35371
5631 1 7.77443 21.8607 3.15407
5636 1 7.78512 23.5487 5.58172
5647 2 9.27044 22.7025 4.36193
5645 1 10.7525 21.877 3.15986
5650 1 10.7682 23.5536 5.58146
5661 2 12.2556 22.7018 4.35548
5659 1 13.7275 21.8315 3.15241
5664 1 13.7768 23.5485 5.56388
5675 2 15.1695 22.6601 4.29304
5673 1 16.71 21.8587 3.17813
5678 5 16.6996 23.5557 5.50412
5689 2 18.2511 22.6659 4.29807
5687 1 19.6927 21.8427 3.15286
5692 1 19.6468 23.5519 5.57489
5703 2 21.1734 22.7018 4.35663
5701 1 22.6773 21.8469 3.17204
5706 1 22.6574 23.5554 5.59179
5717 2 24.16 22.7011 4.37159
5715 1 25.6672 21.8476 3.19671
5720 1 25.6422 23.5528 5.6142
5731 2 27.1277 22.7099 4.40748
5729 1 28.6061 21.8937 3.20772
5734 1 28.6031 23.5444 5.66267
7007 1 0.338546 26.1461 5.53653
5604 1 0.344545 24.4014 3.1365
7003 1 1.83607 26.9896 3.14644
5606 2 1.83374 25.2623 4.32516
7021 1 3.3183 26.1221 5.56138
5618 1 3.32212 24.3966 3.154
7017 1 4.81185 26.9851 3.15744
5620 2 4.80948 25.2615 4.34097
7035 1 6.29541 26.1242 5.57415
5632 1 6.30311 24.3997 3.15871
7031 1 7.78581 26.9924 3.16116
5634 2 7.78685 25.2661 4.34832
7049 1 9.275 26.1279 5.57641
5646 1 9.27491 24.4007 3.16306
7045 1 10.7656 26.9868 3.16418
5648 2 10.7752 25.2738 4.35738
7063 1 12.2395 26.1164 5.55456
5660 1 12.2522 24.4043 3.16258
7059 1 13.7456 26.9801 3.15302
5662 2 13.751 25.2556 4.33438
7077 1 15.2783 26.0694 5.52561
5674 1 15.2455 24.3921 3.17178
7073 1 16.7189 26.984 3.14738
5676 2 16.7109 25.3214 4.29871
7091 1 18.1833 26.0886 5.56995
5688 1 18.1823 24.3974 3.18333
7087 1 19.6908 26.9813 3.17222
5690 2 19.6796 25.2625 4.3558
7105 1 21.1713 26.1253 5.58899
5702 1 21.1761 24.4147 3.17562
7101 1 22.6858 26.9941 3.18625
5704 2 22.6681 25.2741 4.36983
7119 1 24.1542 26.1324 5.6097
5716 1 24.165 24.4207 3.19047
7115 1 25.6811 26.9975 3.22612
5718 2 25.6433 25.2709 4.38777
7133 1 27.1283 26.1145 5.64054
5730 1 27.1447 24.4174 3.20821
7129 1 28.5541 26.9674 3.23002
5732 2 28.5989 25.2632 4.42218
5744 1 30.0393 24.4095 3.21168
7005 2 0.342962 27.8344 4.33961
7004 1 0.352258 29.5677 3.15045
7008 1 1.82597 28.6996 5.56533
7019 2 3.31609 27.8376 4.34489
7018 1 3.29087 29.551 3.15547
7022 1 4.80465 28.6796 5.59227
7033 2 6.30156 27.8397 4.35305
7032 1 6.33427 29.5494 3.15665
7036 1 7.78396 28.7055 5.58198
7047 2 9.27192 27.8486 4.34809
7046 1 9.26432 29.5737 3.15893
7050 1 10.756 28.7099 5.57044
7061 2 12.2577 27.8522 4.34533
7060 1 12.2506 29.5655 3.16388
7064 1 13.7171 28.7105 5.53449
7075 2 15.2312 27.8336 4.32839
7074 1 15.226 29.5676 3.15394
7078 1 16.7392 28.6773 5.54086
7089 2 18.1975 27.8409 4.35525
7088 1 18.2078 29.5641 3.16344
7092 1 19.6871 28.6968 5.58338
7103 2 21.1827 27.8435 4.364
7102 1 21.1908 29.5609 3.17782
7106 1 22.6698 28.7051 5.60209
7117 2 24.1704 27.8514 4.38886
7116 1 24.1876 29.5751 3.21804
7120 1 25.6589 28.711 5.59966
7131 2 27.1263 27.7381 4.47519
7130 5 27.1199 29.5718 3.092
7134 1 28.5993 28.6818 5.63129
11 1 0.341673 2.0167 7.94805
13 7 0.324714 0.350574 8.97177
9 2 1.846 1.20502 6.73644
14 7 1.81334 2.92892 8.97177
25 1 3.31735 2.06595 7.93423
27 7 3.30196 0.350574 8.97177
23 2 4.79469 1.22043 6.74621
28 7 4.79058 2.92892 8.97177
39 1 6.2601 2.0925 7.93345
41 7 6.2792 0.350574 8.97177
37 6 7.76783 1.21002 6.73038
42 7 7.76783 2.92892 8.97177
53 1 9.31059 2.09982 7.93681
55 7 9.25645 0.350574 8.97177
51 2 10.7679 1.21559 6.73275
56 7 10.7451 2.92892 8.97177
67 1 12.2466 2.0397 7.94095
69 7 12.2337 0.350574 8.97177
65 2 13.7466 1.21454 6.74518
70 7 13.7223 2.92892 8.97177
81 1 15.2342 2.08047 7.93968
83 7 15.2109 0.350574 8.97177
79 2 16.7173 1.22435 6.75277
84 7 16.6996 2.92892 8.97177
95 1 18.1732 2.11295 7.96136
97 7 18.1882 0.350574 8.97177
93 6 19.6768 1.21002 6.73038
98 7 19.6768 2.92892 8.97177
109 1 21.2165 2.09903 7.94941
111 7 21.1654 0.350574 8.97177
107 2 22.6764 1.22962 6.74306
112 7 22.6541 2.92892 8.97177
123 1 24.1112 2.08612 7.9496
125 7 24.1427 0.350574 8.97177
121 6 25.6313 1.21002 6.73038
126 7 25.6313 2.92892 8.97177
137 1 27.1631 2.08266 7.9484
139 7 27.1199 0.350574 8.97177
135 2 28.6542 1.27831 6.80543
140 7 28.6085 2.92892 8.97177
1413 7 0.324714 5.50727 8.97177
10 6 0.324714 3.78837 6.73038
12 1 1.86126 4.66921 7.93954
1427 7 3.30196 5.50727 8.97177
24 2 3.31396 3.79289 6.7374
26 1 4.79708 4.64772 7.94248
1441 7 6.2792 5.50727 8.97177
38 2 6.28598 3.80582 6.74668
40 1 7.78559 4.65487 7.93861
1455 7 9.25645 5.50727 8.97177
52 2 9.26805 3.80545 6.73698
54 1 10.7228 4.66845 7.94522
1469 7 12.2337 5.50727 8.97177
66 6 12.2337 3.78837 6.73038
68 1 13.778 4.67599 7.94635
1483 7 15.2109 5.50727 8.97177
80 2 15.2405 3.79832 6.74941
82 1 16.7153 4.65184 7.95055
1497 7 18.1882 5.50727 8.97177
94 2 18.2022 3.79799 6.75364
96 1 19.7027 4.62703 7.94675
1511 7 21.1654 5.50727 8.97177
108 2 21.1895 3.80964 6.75823
110 1 22.6676 4.63516 7.98016
1525 7 24.1427 5.50727 8.97177
122 2 24.1549 3.80046 6.7718
124 1 25.6348 4.65461 7.95576
1539 7 27.1199 5.50727 8.97177
136 2 27.1217 3.79622 6.76232
138 1 28.597 4.65257 7.95063
1411 1 0.342068 7.23888 7.95651
1410 2 0.340141 8.97688 6.77206
1409 2 1.83106 6.38891 6.75723
1414 7 1.81334 8.08561 8.97177
1425 1 3.31456 7.22883 7.95331
1424 2 3.3168 8.96149 6.7751
1423 2 4.8026 6.37755 6.76054
1428 7 4.79058 8.08561 8.97177
1439 1 6.29263 7.23249 7.94931
1438 2 6.29306 8.95934 6.76976
1437 2 7.7816 6.37719 6.75823
1442 7 7.76783 8.08561 8.97177
1453 1 9.27377 7.22589 7.94886
1452 2 9.27114 8.95572 6.76797
1451 2 10.7574 6.38081 6.75199
1456 7 10.7451 8.08561 8.97177
1467 1 12.2525 7.22938 7.94536
1466 2 12.2525 8.95262 6.76685
1465 2 13.749 6.3809 6.75406
1470 7 13.7223 8.08561 8.97177
1481 1 15.2386 7.22566 7.95451
1480 2 15.2354 8.94722 6.76922
1479 2 16.7157 6.37185 6.75954
1484 7 16.6996 8.08561 8.97177
1495 1 18.191 7.24735 7.94713
1494 2 18.2189 8.94216 6.76488
1493 6 19.6768 6.36672 6.73038
1498 7 19.6768 8.08561 8.97177
1509 1 21.233 7.25652 7.94294
1508 2 21.1339 8.98564 6.83878
1507 2 22.6781 6.30309 6.84051
1512 7 22.6541 8.08561 8.97177
1523 1 24.1254 7.23839 7.94617
1522 2 24.1837 8.97442 6.821
1521 2 25.611 6.36404 6.76242
1526 7 25.6313 8.08561 8.97177
1537 1 27.1169 7.1908 7.9604
1536 6 27.1199 8.94506 6.73038
1535 2 28.5961 6.36582 6.75631
1540 7 28.6085 8.08561 8.97177
2813 7 0.324714 10.664 8.97177
2809 2 1.83518 11.5378 6.78042
1412 1 1.82493 9.82728 7.96502
2827 7 3.30196 10.664 8.97177
2823 2 4.80579 11.5453 6.77637
1426 1 4.80467 9.81507 7.96145
2841 7 6.2792 10.664 8.97177
2837 2 7.78031 11.5425 6.77408
1440 1 7.78279 9.81278 7.95749
2855 7 9.25645 10.664 8.97177
2851 2 10.7586 11.534 6.77483
1454 1 10.7605 9.81093 7.95575
2869 7 12.2337 10.664 8.97177
2865 2 13.7439 11.5279 6.77236
1468 1 13.7442 9.80805 7.95557
2883 7 15.2109 10.664 8.97177
2879 2 16.7283 11.5086 6.75514
1482 1 16.7289 9.80026 7.95725
2897 7 18.1882 10.664 8.97177
2893 2 19.6942 11.5066 6.76942
1496 1 19.6894 9.81138 7.97843
2911 7 21.1654 10.664 8.97177
2907 2 22.654 11.4928 6.76794
1510 1 22.6612 9.77756 7.9543
2925 7 24.1427 10.664 8.97177
2921 2 25.6192 11.5264 6.77838
1524 1 25.5974 9.8198 7.97707
2939 7 27.1199 10.664 8.97177
2935 2 28.6053 11.5303 6.78401
1538 1 28.6539 9.81969 7.98003
2811 1 0.336719 12.3737 7.97021
2810 6 0.324714 14.1018 6.73038
2812 1 1.86029 14.9935 7.95739
2814 7 1.81334 13.2423 8.97177
2825 1 3.31985 12.4047 7.96011
2824 2 3.32374 14.1168 6.7608
2826 1 4.80239 14.9841 7.95023
2828 7 4.79058 13.2423 8.97177
2839 1 6.28981 12.3945 7.97087
2838 2 6.28803 14.0566 6.8316
2840 1 7.75497 14.9752 7.95637
2842 7 7.76783 13.2423 8.97177
2853 1 9.26341 12.3953 7.96269
2852 2 9.25842 14.1135 6.78595
2854 1 10.7561 14.9646 7.97336
2856 7 10.7451 13.2423 8.97177
2867 1 12.2517 12.3874 7.96204
2866 2 12.2492 14.1059 6.78234
2868 1 13.7538 14.9591 7.9641
2870 7 13.7223 13.2423 8.97177
2881 1 15.2401 12.3876 7.95362
2880 2 15.2234 14.0951 6.75629
2882 1 16.7098 14.9422 7.94335
2884 7 16.6996 13.2423 8.97177
2895 1 18.1954 12.3479 7.96173
2894 6 18.1882 14.1018 6.73038
2896 1 19.6888 14.9992 7.93863
2898 7 19.6768 13.2423 8.97177
2909 1 21.1722 12.3206 7.96796
2908 6 21.1654 14.1018 6.73038
2910 1 22.6672 14.979 7.97393
2912 7 22.6541 13.2423 8.97177
2923 1 24.1359 12.365 7.96712
2922 2 24.1434 14.0988 6.78356
2924 1 25.6175 14.9582 7.98537
2926 7 25.6313 13.2423 8.97177
2937 1 27.1133 12.3788 7.97771
2936 2 27.1147 14.1057 6.80237
2938 1 28.6104 14.9631 7.99212
2940 7 28.6085 13.2423 8.97177
4211 1 0.311487 17.5349 7.95269
4213 7 0.324714 15.8207 8.97177
4209 2 1.81187 16.6747 6.75825
4225 1 3.29347 17.4974 7.97979
4227 7 3.30196 15.8207 8.97177
4223 2 4.73744 16.7047 6.83615
4239 1 6.27996 17.5093 7.97041
4241 7 6.2792 15.8207 8.97177
4237 2 7.83623 16.7162 6.85335
4253 1 9.27175 17.5355 8.00007
4255 7 9.25645 15.8207 8.97177
4251 2 10.758 16.6845 6.79252
4267 1 12.2633 17.5364 7.98431
4269 7 12.2337 15.8207 8.97177
4265 2 13.7342 16.6784 6.7779
4281 1 15.2034 17.5379 7.97394
4283 7 15.2109 15.8207 8.97177
4279 6 16.6996 16.6801 6.73038
4295 1 18.2392 17.5515 7.96706
4297 7 18.1882 15.8207 8.97177
4293 2 19.6936 16.7008 6.75012
4309 1 21.1585 17.5355 7.96855
4311 7 21.1654 15.8207 8.97177
4307 2 22.6604 16.6893 6.78038
4323 1 24.1386 17.53 7.98756
4325 7 24.1427 15.8207 8.97177
4321 2 25.6336 16.6839 6.80439
4337 1 27.1264 17.5425 7.99809
4339 7 27.1199 15.8207 8.97177
4335 2 28.6169 16.6985 6.79724
5613 7 0.324714 20.9773 8.97177
4210 2 0.303391 19.2385 6.76044
4212 1 1.76232 20.1291 7.98089
4214 7 1.81334 18.399 8.97177
5627 7 3.30196 20.9773 8.97177
4224 6 3.30196 19.2584 6.73038
4226 1 4.82959 20.1127 7.98436
4228 7 4.79058 18.399 8.97177
5641 7 6.2792 20.9773 8.97177
4238 2 6.29372 19.2389 6.81448
4240 1 7.77201 20.102 8.00092
4242 7 7.76783 18.399 8.97177
5655 7 9.25645 20.9773 8.97177
4252 2 9.25552 19.2397 6.81687
4254 1 10.7631 20.1148 7.99527
4256 7 10.7451 18.399 8.97177
5669 7 12.2337 20.9773 8.97177
4266 2 12.2552 19.2551 6.80704
4268 1 13.7501 20.1119 7.97781
4270 7 13.7223 18.399 8.97177
5683 7 15.2109 20.9773 8.97177
4280 2 15.2234 19.2649 6.77806
4282 1 16.7097 20.1091 7.97417
4284 7 16.6996 18.399 8.97177
5697 7 18.1882 20.9773 8.97177
4294 2 18.2005 19.2705 6.77241
4296 1 19.6703 20.1141 7.97243
4298 7 19.6768 18.399 8.97177
5711 7 21.1654 20.9773 8.97177
4308 2 21.1679 19.2622 6.78975
4310 1 22.6505 20.1137 7.98928
4312 7 22.6541 18.399 8.97177
5725 7 24.1427 20.9773 8.97177
4322 2 24.1485 19.2595 6.80979
4324 1 25.637 20.1153 8.00772
4326 7 25.6313 18.399 8.97177
5739 7 27.1199 20.9773 8.97177
4336 2 27.1298 19.2668 6.83328
4338 1 28.6274 20.1299 8.00746
4340 7 28.6085 18.399 8.97177
5611 1 0.32751 22.6246 7.97349
5609 2 1.816 21.8155 6.77392
5614 7 1.81334 23.5557 8.97177
5625 1 3.30909 22.677 7.97466
5623 2 4.81533 21.8202 6.7873
5628 7 4.79058 23.5557 8.97177
5639 1 6.2893 22.6758 7.99023
5637 2 7.79109 21.8239 6.8079
5642 7 7.76783 23.5557 8.97177
5653 1 9.27614 22.6859 7.99015
5651 2 10.7557 21.8309 6.80549
5656 7 10.7451 23.5557 8.97177
5667 1 12.2688 22.6994 7.9825
5665 2 13.7405 21.8339 6.78369
5670 7 13.7223 23.5557 8.97177
5681 1 15.2398 22.7036 7.95284
5679 2 16.7074 21.7725 6.83515
5684 7 16.6996 23.5557 8.97177
5695 1 18.1705 22.7001 7.95602
5693 2 19.6688 21.84 6.79176
5698 7 19.6768 23.5557 8.97177
5709 1 21.1534 22.6915 7.98881
5707 2 22.6544 21.8359 6.81083
5712 7 22.6541 23.5557 8.97177
5723 1 24.1387 22.6891 8.0104
5721 2 25.6477 21.8289 6.82352
5726 7 25.6313 23.5557 8.97177
5737 1 27.117 22.6955 8.04126
5735 2 28.546 21.8796 6.90795
5740 7 28.6085 23.5557 8.97177
7013 7 0.324714 26.134 8.97177
5610 6 0.324714 24.4151 6.73038
7009 2 1.82811 26.9863 6.78405
5612 1 1.85477 25.2779 7.97884
7027 7 3.30196 26.134 8.97177
5624 2 3.3204 24.4001 6.78725
7023 2 4.80187 26.9928 6.79041
5626 1 4.79381 25.2647 7.98382
7041 7 6.2792 26.134 8.97177
5638 2 6.29199 24.4039 6.80464
7037 2 7.78344 26.9856 6.80534
5640 1 7.78161 25.2659 7.99204
7055 7 9.25645 26.134 8.97177
5652 2 9.27528 24.4096 6.80664
7051 2 10.7551 26.9897 6.79676
5654 1 10.7691 25.2704 7.98759
7069 7 12.2337 26.134 8.97177
5666 2 12.2589 24.4049 6.79082
7065 6 13.7223 26.9935 6.73038
5668 1 13.7547 25.2425 7.98669
7083 7 15.2109 26.134 8.97177
5680 2 15.1832 24.4246 6.82565
7079 2 16.7245 26.9545 6.77018
5682 1 16.7059 25.2409 7.9511
7097 7 18.1882 26.134 8.97177
5694 2 18.2479 24.4357 6.84177
7093 2 19.6789 26.9789 6.80469
5696 1 19.6784 25.2646 7.99539
7111 7 21.1654 26.134 8.97177
5708 2 21.1636 24.4069 6.80774
7107 2 22.6613 26.9879 6.82679
5710 1 22.6534 25.2676 8.0099
7125 7 24.1427 26.134 8.97177
5722 2 24.147 24.4114 6.83316
7121 2 25.6398 26.9937 6.84612
5724 1 25.6342 25.2718 8.03419
7139 7 27.1199 26.134 8.97177
5736 2 27.1379 24.4043 6.84866
7135 2 28.6339 26.9977 6.84197
5738 1 28.6279 25.276 8.03752
7011 1 0.33569 27.8421 7.97383
7010 2 0.331273 29.5556 6.78543
7014 7 1.81334 28.7124 8.97177
7025 1 3.3051 27.839 7.98366
7024 2 3.3132 29.5532 6.79918
7028 7 4.79058 28.7124 8.97177
7039 1 6.28903 27.8439 7.98816
7038 2 6.29373 29.5638 6.81074
7042 7 7.76783 28.7124 8.97177
7053 1 9.27603 27.848 7.99338
7052 2 9.26903 29.5672 6.80751
7056 7 10.7451 28.7124 8.97177
7067 1 12.207 27.8765 7.99351
7066 2 12.2317 29.585 6.78341
7070 7 13.7223 28.7124 8.97177
7081 1 15.2511 27.8007 7.95163
7080 6 15.2109 29.5718 6.73038
7084 7 16.6996 28.7124 8.97177
7095 1 18.1832 27.8272 7.98227
7094 2 18.2026 29.5517 6.79808
7098 7 19.6768 28.7124 8.97177
7109 1 21.1667 27.8443 8.00417
7108 2 21.1734 29.5624 6.82073
7112 7 22.6541 28.7124 8.97177
7123 1 24.1533 27.8523 8.02028
7122 2 24.1592 29.5638 6.83471
7126 7 25.6313 28.7124 8.97177
7140 7 28.6085 28.7124 8.97177
7137 1 27.1418 27.8595 8.02088
7136 2 27.1458 29.5585 6.82503
8401 7 0.324714 31.2907 2.03646
8415 7 3.30196 31.2907 2.03646
8429 7 6.2792 31.2907 2.03646
8443 7 9.25645 31.2907 2.03646
8457 7 12.2337 31.2907 2.03646
8471 7 15.2109 31.2907 2.03646
8485 7 18.1882 31.2907 2.03646
8499 7 21.1654 31.2907 2.03646
8513 7 24.1427 31.2907 2.03646
8527 7 27.1199 31.2907 2.03646
8402 7 1.81334 33.8691 2.03646
8416 7 4.79058 33.8691 2.03646
8430 7 7.76783 33.8691 2.03646
8444 7 10.7451 33.8691 2.03646
8458 7 13.7223 33.8691 2.03646
8472 7 16.6996 33.8691 2.03646
8486 7 19.6768 33.8691 2.03646
8500 7 22.6541 33.8691 2.03646
8514 7 25.6313 33.8691 2.03646
8528 7 28.6085 33.8691 2.03646
9801 7 0.324714 36.4474 2.03646
9802 7 1.81334 39.0258 2.03646
9815 7 3.30196 36.4474 2.03646
9816 7 4.79058 39.0258 2.03646
9829 7 6.2792 36.4474 2.03646
9830 7 7.76783 39.0258 2.03646
9843 7 9.25645 36.4474 2.03646
9844 7 10.7451 39.0258 2.03646
9857 7 12.2337 36.4474 2.03646
9858 7 13.7223 39.0258 2.03646
9871 7 15.2109 36.4474 2.03646
9872 7 16.6996 39.0258 2.03646
9885 7 18.1882 36.4474 2.03646
9886 7 19.6768 39.0258 2.03646
9899 7 21.1654 36.4474 2.03646
9900 7 22.6541 39.0258 2.03646
9913 7 24.1427 36.4474 2.03646
9914 7 25.6313 39.0258 2.03646
9927 7 27.1199 36.4474 2.03646
9928 7 28.6085 39.0258 2.03646
11201 7 0.324714 41.6041 2.03646
11215 7 3.30196 41.6041 2.03646
11229 7 6.2792 41.6041 2.03646
11243 7 9.25645 41.6041 2.03646
11257 7 12.2337 41.6041 2.03646
11271 7 15.2109 41.6041 2.03646
11285 7 18.1882 41.6041 2.03646
11299 7 21.1654 41.6041 2.03646
11313 7 24.1427 41.6041 2.03646
11327 7 27.1199 41.6041 2.03646
11202 7 1.81334 44.1825 2.03646
11216 7 4.79058 44.1825 2.03646
11230 7 7.76783 44.1825 2.03646
11244 7 10.7451 44.1825 2.03646
11258 7 13.7223 44.1825 2.03646
11272 7 16.6996 44.1825 2.03646
11286 7 19.6768 44.1825 2.03646
11300 7 22.6541 44.1825 2.03646
11314 7 25.6313 44.1825 2.03646
11328 7 28.6085 44.1825 2.03646
12601 7 0.324714 46.7608 2.03646
12615 7 3.30196 46.7608 2.03646
12629 7 6.2792 46.7608 2.03646
12643 7 9.25645 46.7608 2.03646
12657 7 12.2337 46.7608 2.03646
12671 7 15.2109 46.7608 2.03646
12685 7 18.1882 46.7608 2.03646
12699 7 21.1654 46.7608 2.03646
12713 7 24.1427 46.7608 2.03646
12727 7 27.1199 46.7608 2.03646
12602 7 1.81334 49.3392 2.03646
12616 7 4.79058 49.3392 2.03646
12630 7 7.76783 49.3392 2.03646
12644 7 10.7451 49.3392 2.03646
12658 7 13.7223 49.3392 2.03646
12672 7 16.6996 49.3392 2.03646
12686 7 19.6768 49.3392 2.03646
12700 7 22.6541 49.3392 2.03646
12714 7 25.6313 49.3392 2.03646
12728 7 28.6085 49.3392 2.03646
14001 7 0.324714 51.9175 2.03646
14015 7 3.30196 51.9175 2.03646
14029 7 6.2792 51.9175 2.03646
14043 7 9.25645 51.9175 2.03646
14057 7 12.2337 51.9175 2.03646
14071 7 15.2109 51.9175 2.03646
14085 7 18.1882 51.9175 2.03646
14099 7 21.1654 51.9175 2.03646
14113 7 24.1427 51.9175 2.03646
14127 7 27.1199 51.9175 2.03646
15401 7 0.324714 57.0742 2.03646
14002 7 1.81334 54.4958 2.03646
15415 7 3.30196 57.0742 2.03646
14016 7 4.79058 54.4958 2.03646
15429 7 6.2792 57.0742 2.03646
14030 7 7.76783 54.4958 2.03646
15443 7 9.25645 57.0742 2.03646
14044 7 10.7451 54.4958 2.03646
15457 7 12.2337 57.0742 2.03646
14058 7 13.7223 54.4958 2.03646
15471 7 15.2109 57.0742 2.03646
14072 7 16.6996 54.4958 2.03646
15485 7 18.1882 57.0742 2.03646
14086 7 19.6768 54.4958 2.03646
15499 7 21.1654 57.0742 2.03646
14100 7 22.6541 54.4958 2.03646
15513 7 24.1427 57.0742 2.03646
14114 7 25.6313 54.4958 2.03646
15527 7 27.1199 57.0742 2.03646
14128 7 28.6085 54.4958 2.03646
15402 7 1.81334 59.6525 2.03646
15416 7 4.79058 59.6525 2.03646
15430 7 7.76783 59.6525 2.03646
15444 7 10.7451 59.6525 2.03646
15458 7 13.7223 59.6525 2.03646
15472 7 16.6996 59.6525 2.03646
15486 7 19.6768 59.6525 2.03646
15500 7 22.6541 59.6525 2.03646
15514 7 25.6313 59.6525 2.03646
15528 7 28.6085 59.6525 2.03646
8405 2 0.338624 33.0141 4.33596
8407 1 0.317621 31.2752 5.5479
8403 1 1.8345 32.1529 3.15611
7006 2 1.82314 30.4238 4.34058
8419 2 3.31818 33.022 4.34822
8421 1 3.31597 31.2875 5.57308
8417 1 4.81052 32.1934 3.16123
7020 6 4.79058 30.4313 4.27785
8433 2 6.30021 33.0207 4.35697
8435 1 6.31267 31.3015 5.59583
8431 1 7.79601 32.1579 3.16617
7034 2 7.79053 30.4302 4.35677
8447 2 9.26552 33.0119 4.36495
8449 1 9.26541 31.2887 5.58636
8445 1 10.7248 32.1192 3.17331
7048 2 10.7463 30.4207 4.35191
8461 6 12.2337 33.0096 4.27785
8463 1 12.2416 31.2632 5.59229
8459 1 13.7684 32.1105 3.18143
7062 2 13.7413 30.4047 4.35471
8475 2 15.2259 32.9898 4.37861
8477 1 15.2231 31.3005 5.56902
8473 1 16.6977 32.1458 3.16869
7076 2 16.7162 30.4223 4.34241
8489 2 18.1987 32.9988 4.35653
8491 1 18.2003 31.2784 5.57813
8487 1 19.6924 32.1398 3.17224
7090 2 19.6932 30.4205 4.35763
8503 2 21.1808 32.9993 4.36282