ITEM: TIMESTEP
100000
ITEM: NUMBER OF ATOMS
81200
ITEM: BOX BOUNDS pp pp pp
2.2376056463591915e-01 2.9807573533138896e+02
2.1779115718476297e-01 2.9942992081698753e+02
0.0000000000000000e+00 4.9031656433928198e+01
ITEM: ATOMS id type x y z
1 7 0.260992 0.288627 2.03646
2 7 1.75025 2.86804 2.03646
15 7 3.23951 0.288627 2.03646
16 7 4.72877 2.86804 2.03646
29 7 6.21803 0.288627 2.03646
30 7 7.70729 2.86804 2.03646
43 7 9.19655 0.288627 2.03646
44 7 10.6858 2.86804 2.03646
57 7 12.1751 0.288627 2.03646
58 7 13.6643 2.86804 2.03646
71 7 15.1536 0.288627 2.03646
72 7 16.6429 2.86804 2.03646
85 7 18.1321 0.288627 2.03646
86 7 19.6214 2.86804 2.03646
99 7 21.1106 0.288627 2.03646
100 7 22.5999 2.86804 2.03646
113 7 24.0892 0.288627 2.03646
114 7 25.5784 2.86804 2.03646
127 7 27.0677 0.288627 2.03646
128 7 28.5569 2.86804 2.03646
1401 7 0.260992 5.44746 2.03646
1415 7 3.23951 5.44746 2.03646
1429 7 6.21803 5.44746 2.03646
1443 7 9.19655 5.44746 2.03646
1457 7 12.1751 5.44746 2.03646
1471 7 15.1536 5.44746 2.03646
1485 7 18.1321 5.44746 2.03646
1499 7 21.1106 5.44746 2.03646
1513 7 24.0892 5.44746 2.03646
1527 7 27.0677 5.44746 2.03646
1402 7 1.75025 8.02687 2.03646
1416 7 4.72877 8.02687 2.03646
1430 7 7.70729 8.02687 2.03646
1444 7 10.6858 8.02687 2.03646
1458 7 13.6643 8.02687 2.03646
1472 7 16.6429 8.02687 2.03646
1486 7 19.6214 8.02687 2.03646
1500 7 22.5999 8.02687 2.03646
1514 7 25.5784 8.02687 2.03646
1528 7 28.5569 8.02687 2.03646
2801 7 0.260992 10.6063 2.03646
2815 7 3.23951 10.6063 2.03646
2829 7 6.21803 10.6063 2.03646
2843 7 9.19655 10.6063 2.03646
2857 7 12.1751 10.6063 2.03646
2871 7 15.1536 10.6063 2.03646
2885 7 18.1321 10.6063 2.03646
2899 7 21.1106 10.6063 2.03646
2913 7 24.0892 10.6063 2.03646
2927 7 27.0677 10.6063 2.03646
2802 7 1.75025 13.1857 2.03646
2816 7 4.72877 13.1857 2.03646
2830 7 7.70729 13.1857 2.03646
2844 7 10.6858 13.1857 2.03646
2858 7 13.6643 13.1857 2.03646
2872 7 16.6429 13.1857 2.03646
2886 7 19.6214 13.1857 2.03646
2900 7 22.5999 13.1857 2.03646
2914 7 25.5784 13.1857 2.03646
2928 7 28.5569 13.1857 2.03646
4201 7 0.260992 15.7651 2.03646
4215 7 3.23951 15.7651 2.03646
4229 7 6.21803 15.7651 2.03646
4243 7 9.19655 15.7651 2.03646
4257 7 12.1751 15.7651 2.03646
4271 7 15.1536 15.7651 2.03646
4285 7 18.1321 15.7651 2.03646
4299 7 21.1106 15.7651 2.03646
4313 7 24.0892 15.7651 2.03646
4327 7 27.0677 15.7651 2.03646
5601 7 0.260992 20.9239 2.03646
4202 7 1.75025 18.3445 2.03646
5615 7 3.23951 20.9239 2.03646
4216 7 4.72877 18.3445 2.03646
5629 7 6.21803 20.9239 2.03646
4230 7 7.70729 18.3445 2.03646
5643 7 9.19655 20.9239 2.03646
4244 7 10.6858 18.3445 2.03646
5657 7 12.1751 20.9239 2.03646
4258 7 13.6643 18.3445 2.03646
5671 7 15.1536 20.9239 2.03646
4272 7 16.6429 18.3445 2.03646
5685 7 18.1321 20.9239 2.03646
4286 7 19.6214 18.3445 2.03646
5699 7 21.1106 20.9239 2.03646
4300 7 22.5999 18.3445 2.03646
5713 7 24.0892 20.9239 2.03646
4314 7 25.5784 18.3445 2.03646
5727 7 27.0677 20.9239 2.03646
4328 7 28.5569 18.3445 2.03646
5602 7 1.75025 23.5034 2.03646
5616 7 4.72877 23.5034 2.03646
5630 7 7.70729 23.5034 2.03646
5644 7 10.6858 23.5034 2.03646
5658 7 13.6643 23.5034 2.03646
5672 7 16.6429 23.5034 2.03646
5686 7 19.6214 23.5034 2.03646
5700 7 22.5999 23.5034 2.03646
5714 7 25.5784 23.5034 2.03646
5728 7 28.5569 23.5034 2.03646
7001 7 0.260992 26.0828 2.03646
7015 7 3.23951 26.0828 2.03646
7029 7 6.21803 26.0828 2.03646
7043 7 9.19655 26.0828 2.03646
7057 7 12.1751 26.0828 2.03646
7071 7 15.1536 26.0828 2.03646
7085 7 18.1321 26.0828 2.03646
7099 7 21.1106 26.0828 2.03646
7113 7 24.0892 26.0828 2.03646
7127 7 27.0677 26.0828 2.03646
7002 7 1.75025 28.6622 2.03646
7016 7 4.72877 28.6622 2.03646
7030 7 7.70729 28.6622 2.03646
7044 7 10.6858 28.6622 2.03646
7058 7 13.6643 28.6622 2.03646
7072 7 16.6429 28.6622 2.03646
7086 7 19.6214 28.6622 2.03646
7100 7 22.5999 28.6622 2.03646
7114 7 25.5784 28.6622 2.03646
7128 7 28.5569 28.6622 2.03646
5 2 0.26764 2.01119 4.28474
7 1 0.269853 0.327708 5.4842
3 1 1.75403 1.15675 3.08646
8 1 1.76102 2.87869 5.50377
19 2 3.25129 2.01852 4.27284
21 1 3.25347 0.298063 5.49438
17 1 4.74363 1.15594 3.08815
22 1 4.7412 2.87772 5.5031
33 2 6.23354 2.01707 4.27568
35 1 6.23371 0.296121 5.50213
31 1 7.72876 1.15747 3.09227
36 1 7.72224 2.87791 5.50422
47 2 9.22526 2.02188 4.28614
49 1 9.21632 0.297021 5.50615
45 1 10.7123 1.15586 3.09527
50 1 10.6821 2.86429 5.4867
61 2 12.2006 2.01214 4.27659
63 1 12.1986 0.294069 5.5075
59 1 13.698 1.15483 3.10289
64 1 13.7097 2.8632 5.49455
75 2 15.1757 2.02082 4.30177
77 1 15.1802 0.297517 5.52341
73 1 16.6819 1.15383 3.11864
78 1 16.6681 2.87781 5.52773
89 2 18.1659 2.01695 4.30774
91 1 18.1642 0.301191 5.53811
87 1 19.6683 1.15994 3.13153
92 1 19.645 2.88248 5.54327
103 2 21.1319 2.02315 4.33337
105 1 21.1422 0.296993 5.5644
101 1 22.6189 1.14918 3.17601
106 1 22.6179 2.85904 5.57338
117 2 24.1036 2.00864 4.3519
119 1 24.0724 0.27321 5.5616
115 1 25.5992 1.20247 3.16317
120 1 25.5879 2.83868 5.55503
131 2 27.0543 2.09027 4.26525
133 1 27.0677 0.288627 5.50412
129 1 28.5249 1.13238 3.1464
134 1 28.5225 2.8404 5.53365
147 1 29.9862 0.31874 5.52001
1407 1 0.269944 5.46186 5.50956
4 1 0.264439 3.7414 3.09583
6 2 1.75835 4.60094 4.27942
1421 1 3.25012 5.46018 5.50598
18 1 3.24923 3.7402 3.09084
20 2 4.74035 4.59979 4.27779
1435 1 6.22996 5.45901 5.50544
32 1 6.23231 3.73909 3.09083
34 2 7.72149 4.5992 4.27697
1449 1 9.20851 5.45948 5.50132
46 1 9.21719 3.73726 3.09262
48 2 10.7025 4.59897 4.27326
1463 1 12.193 5.48187 5.49074
60 1 12.2024 3.7356 3.09248
62 2 13.6933 4.59718 4.28039
1477 1 15.1774 5.4569 5.51529
74 1 15.1892 3.73557 3.10876
76 2 16.6814 4.60086 4.30592
1491 1 18.1329 5.44338 5.5193
88 1 18.1748 3.73833 3.11915
90 2 19.6389 4.59239 4.3245
1505 1 21.1435 5.47473 5.58325
102 1 21.1155 3.73495 3.14428
104 2 22.5999 4.58765 4.27785
1519 1 24.0962 5.48807 5.57401
116 1 24.1259 3.71379 3.13626
118 2 25.5709 4.5854 4.33047
1533 1 27.0527 5.44166 5.53172
130 1 27.0441 3.73059 3.11799
132 2 28.5486 4.58643 4.31658
1547 1 30.0051 5.42903 5.51326
1405 2 0.268843 7.18412 4.28377
1404 1 0.26776 8.90692 3.10072
1403 1 1.75743 6.32388 3.09527
1408 1 1.76195 8.0447 5.50913
1419 2 3.25001 7.18339 4.28026
1418 1 3.24972 8.90923 3.09464
1417 1 4.73955 6.32297 3.09341
1422 1 4.74036 8.04221 5.50743
1433 2 6.23016 7.18187 4.28017
1432 1 6.23087 8.90502 3.09628
1431 1 7.7214 6.3214 3.09219
1436 1 7.71881 8.04099 5.50839
1447 2 9.21076 7.18005 4.28034
1446 1 9.21212 8.90156 3.09736
1445 1 10.7071 6.31778 3.09621
1450 1 10.6989 8.03741 5.51123
1461 2 12.1954 7.16583 4.29383
1460 1 12.1982 8.89321 3.10382
1459 1 13.6917 6.31457 3.10255
1464 1 13.6833 8.03339 5.51806
1475 2 15.1804 7.17382 4.29296
1474 1 15.1898 8.88921 3.10772
1473 1 16.6824 6.31745 3.11097
1478 1 16.6656 8.03017 5.52853
1489 2 18.1496 7.16664 4.31732
1488 1 18.1426 8.86701 3.12928
1487 1 19.6021 6.28575 3.11428
1492 1 19.666 8.03455 5.57555
1503 2 21.1106 7.16707 4.27785
1502 1 21.196 8.8548 3.23797
1501 1 22.6119 6.39562 3.2478
1506 1 22.5999 8.02687 5.50412
1517 2 24.1615 7.15714 4.3093
1516 1 24.0639 8.87168 3.15502
1515 1 25.5536 6.30706 3.12843
1520 1 25.5201 8.0091 5.52041
1531 2 27.0511 7.16547 4.30678
1530 1 27.0469 8.88588 3.12367
1529 1 28.5397 6.30797 3.12338
1534 1 28.5625 8.01533 5.51222
2807 1 0.271467 10.6047 5.52991
2803 1 1.80117 11.4553 3.08863
1406 2 1.76641 9.75771 4.28939
2821 1 3.25576 10.627 5.51307
2817 1 4.73837 11.4866 3.09828
1420 2 4.74129 9.76556 4.28329
2835 1 6.22838 10.6277 5.50994
2831 1 7.71717 11.4883 3.10181
1434 2 7.7185 9.76422 4.28376
2849 1 9.20364 10.6234 5.5114
2845 1 10.7018 11.4752 3.10218
1448 2 10.7008 9.75723 4.28657
2863 1 12.1879 10.6142 5.51655
2859 1 13.6869 11.4702 3.10797
1462 2 13.6858 9.75126 4.29199
2877 1 15.1724 10.6081 5.52527
2873 1 16.6726 11.4642 3.11906
1476 2 16.6626 9.74611 4.30884
2891 1 18.138 10.6094 5.55482
2887 1 19.658 11.4761 3.12635
1490 2 19.6214 9.74648 4.27785
2905 1 21.1645 10.5837 5.57435
2901 1 22.6019 11.4536 3.12791
1504 2 22.6295 9.81635 4.29778
2919 1 24.0752 10.5728 5.54438
2915 1 25.5696 11.4591 3.13484
1518 2 25.562 9.74013 4.31282
2933 1 27.0598 10.6282 5.52295
2929 1 28.5474 11.4767 3.12764
1532 2 28.5462 9.75138 4.3024
2805 2 0.260992 12.3259 4.27785
2804 1 0.271556 14.0848 3.0849
2806 2 1.76072 14.9187 4.28724
2808 1 1.78143 13.2166 5.52234
2819 2 3.26315 12.3409 4.29006
2818 1 3.24812 14.0482 3.08795
2820 2 4.68182 14.8793 4.23317
2822 1 4.75576 13.2313 5.5059
2833 2 6.22754 12.3516 4.28686
2832 1 6.22897 14.0756 3.12067
2834 2 7.7683 14.8802 4.24094
2836 1 7.69426 13.2297 5.51038
2847 2 9.20207 12.3398 4.28987
2846 1 9.2088 14.052 3.09703
2848 2 10.6904 14.9122 4.29406
2850 1 10.6886 13.1962 5.51407
2861 2 12.189 12.3329 4.29129
2860 1 12.1912 14.0524 3.10719
2862 2 13.6775 14.9105 4.29639
2864 1 13.676 13.1897 5.52185
2875 2 15.1733 12.3278 4.29838
2874 1 15.1742 14.0493 3.11325
2876 2 16.6602 14.9056 4.30218
2878 1 16.6596 13.1838 5.52941
2889 2 18.1535 12.3244 4.31286
2888 1 18.159 14.0355 3.11907
2890 2 19.6358 14.9021 4.31001
2892 1 19.6377 13.1791 5.54151
2903 2 21.1271 12.3192 4.32541
2902 1 21.1193 14.0355 3.12522
2904 2 22.6085 14.902 4.31285
2906 1 22.6078 13.176 5.54122
2917 2 24.0915 12.3174 4.31915
2916 1 24.0953 14.043 3.12936
2918 2 25.584 14.9063 4.31667
2920 1 25.5773 13.1806 5.54387
2931 2 27.0626 12.3158 4.32609
2930 1 27.0735 14.0475 3.133
2932 2 28.5502 14.9145 4.32696
2934 1 28.5522 13.1886 5.55056
2944 1 30.0069 14.0361 3.12913
4205 2 0.261163 17.4773 4.28423
4207 1 0.230793 15.7713 5.49947
4203 1 1.755 16.61 3.09217
4219 2 3.25215 17.4667 4.26948
4221 1 3.27446 15.7656 5.49471
4217 1 4.75675 16.6068 3.11409
4233 2 6.2191 17.5348 4.24493
4235 1 6.21803 15.7651 5.50412
4231 1 7.69588 16.6143 3.12497
4247 2 9.18644 17.467 4.30111
4249 1 9.16423 15.7665 5.51463
4245 1 10.6883 16.6247 3.11264
4261 2 12.1878 17.4803 4.30483
4263 1 12.1788 15.7689 5.52119
4259 1 13.6764 16.6366 3.11242
4275 2 15.1677 17.4911 4.30401
4277 1 15.1651 15.7672 5.52697
4273 1 16.6597 16.6299 3.11855
4289 2 18.144 17.4908 4.3077
4291 1 18.144 15.7653 5.53233
4287 1 19.6349 16.628 3.12281
4303 2 21.1212 17.4872 4.31143
4305 1 21.1209 15.7641 5.53721
4301 1 22.6106 16.6254 3.12613
4317 2 24.0998 17.4877 4.315
4319 1 24.097 15.7652 5.54129
4315 1 25.5873 16.6284 3.13079
4331 2 27.0791 17.4948 4.32259
4333 1 27.0741 15.7736 5.54536
4329 1 28.5628 16.6431 3.14063
5607 1 0.254107 20.8964 5.49246
4204 1 0.259059 19.1812 3.09213
4206 2 1.7498 20.044 4.26782
4208 1 1.72019 18.3156 5.47782
5621 1 3.24644 20.9242 5.48519
4218 1 3.25121 19.1823 3.08795
4220 2 4.74006 20.0448 4.27461
4222 1 4.77987 18.2889 5.47218
5635 1 6.2296 20.9031 5.50393
4232 1 6.23399 19.1913 3.09009
4234 2 7.70997 20.0453 4.29652
4236 1 7.69147 18.3 5.51683
5649 1 9.1843 20.9187 5.54026
4246 1 9.16162 19.1668 3.10433
4248 2 10.6858 20.0641 4.27785
4250 1 10.6874 18.3138 5.54256
5663 1 12.2198 20.9363 5.54915
4260 1 12.2237 19.1846 3.11216
4262 2 13.6929 20.0668 4.31444
4264 1 13.6803 18.3487 5.53313
5677 1 15.1873 20.9555 5.53323
4274 1 15.1654 19.2152 3.12187
4276 2 16.6558 20.0799 4.31197
4278 1 16.6546 18.3529 5.53292
5691 1 18.1232 20.9587 5.5362
4288 1 18.1427 19.2184 3.12632
4290 2 19.6276 20.071 4.31502
4292 1 19.6284 18.3518 5.53571
5705 1 21.1153 20.9282 5.53909
4302 1 21.1226 19.2082 3.1264
4304 2 22.6117 20.0676 4.31555
4306 1 22.6099 18.347 5.53961
5719 1 24.1054 20.9251 5.54503
4316 1 24.1017 19.2094 3.13038
4318 2 25.5958 20.071 4.32335
4320 1 25.5931 18.3514 5.54253
5733 1 27.1172 20.9272 5.54847
4330 1 27.0766 19.2115 3.12997
4332 2 28.5123 20.0407 4.27759
4334 1 28.5807 18.3861 5.54737
5605 2 0.267486 22.6227 4.27406
5603 1 1.75979 21.7636 3.09135
5608 1 1.75842 23.4814 5.50597
5619 2 3.25006 22.614 4.28907
5617 1 4.7405 21.7677 3.09691
5622 1 4.74093 23.4841 5.51236
5633 2 6.23319 22.6288 4.2858
5631 1 7.72689 21.7726 3.10543
5636 1 7.72259 23.4884 5.52052
5647 2 9.21192 22.6391 4.30397
5645 1 10.7064 21.8181 3.11164
5650 1 10.708 23.4948 5.53484
5661 2 12.2032 22.648 4.3157
5659 1 13.6823 21.7819 3.11846
5664 1 13.7197 23.4966 5.53524
5675 2 15.1184 22.6107 4.26606
5673 1 16.6582 21.8089 3.14925
5678 1 16.6429 23.5034 5.50412
5689 2 18.1971 22.6135 4.26955
5687 1 19.6354 21.7863 3.12369
5692 1 19.5935 23.5002 5.54175
5703 2 21.1175 22.6467 4.32078
5701 1 22.6157 21.7877 3.13265
5706 1 22.606 23.5014 5.54779
5717 2 24.1049 22.6441 4.32313
5715 1 25.6017 21.7865 3.1403
5720 1 25.5947 23.4967 5.5546
5731 2 27.091 22.6402 4.32978
5729 1 28.585 21.7788 3.16309
5734 1 28.587 23.4697 5.55354
7007 1 0.273191 26.0657 5.50885
5604 1 0.274781 24.3491 3.09215
7003 1 1.76845 26.9338 3.10138
5606 2 1.76415 25.2074 4.28339
7021 1 3.25274 26.0667 5.51511
5618 1 3.25508 24.3478 3.10048
7017 1 4.74871 26.9349 3.10801
5620 2 4.74452 25.2091 4.28984
7035 1 6.23307 26.0686 5.52229
5632 1 6.23782 24.3527 3.1051
7031 1 7.73083 26.9358 3.11603
5634 2 7.72703 25.2114 4.29717
7049 1 9.21392 26.0703 5.53096
5646 1 9.22469 24.3503 3.1137
7045 1 10.7117 26.9349 3.12511
5648 2 10.7098 25.2124 4.30813
7063 1 12.1992 26.0681 5.53921
5660 1 12.2021 24.3503 3.12518
7059 1 13.6924 26.9284 3.13366
5662 2 13.6954 25.2076 4.31653
7077 1 15.19 26.0376 5.54139
5674 1 15.1932 24.3468 3.15182
7073 1 16.6604 26.937 3.12857
5676 2 16.6594 25.276 4.27225
7091 1 18.1261 26.0405 5.54388
5688 1 18.1266 24.3488 3.1548
7087 1 19.6323 26.9308 3.13929
5690 2 19.6235 25.2118 4.32372
7105 1 21.1184 26.0738 5.5497
5702 1 21.1173 24.3611 3.13784
7101 1 22.6272 26.9436 3.14237
5704 2 22.6131 25.2212 4.32523
7119 1 24.1038 26.0793 5.55849
5716 1 24.1064 24.3661 3.14043
7115 1 25.6237 26.949 3.17107
5718 2 25.5916 25.2179 4.33168
7133 1 27.0806 26.0623 5.57799
5730 1 27.0873 24.368 3.14513
7129 1 28.5012 26.9392 3.17485
5732 2 28.5637 25.2111 4.34132
7005 2 0.276877 27.7925 4.28673
7004 1 0.280088 29.5188 3.10512
7008 1 1.76472 28.6505 5.51816
7019 2 3.25673 27.7927 4.29274
7018 1 3.26036 29.5188 3.11094
7022 1 4.74482 28.6515 5.52441
7033 2 6.23744 27.7941 4.29967
7032 1 6.24212 29.5206 3.11757
7036 1 7.72466 28.6528 5.5326
7047 2 9.21768 27.7943 4.30829
7046 1 9.222 29.5222 3.12592
7050 1 10.7034 28.6497 5.54198
7061 2 12.1982 27.7906 4.31631
7060 1 12.198 29.5172 3.13296
7064 1 13.6856 28.6438 5.54671
7075 2 15.1721 27.7869 4.32238
7074 1 15.1696 29.5189 3.13593
7078 1 16.6574 28.6446 5.54603
7089 2 18.1468 27.7879 4.32451
7088 1 18.148 29.5157 3.13734
7092 1 19.6325 28.6474 5.55005
7103 2 21.1269 27.7935 4.3259
7102 1 21.1321 29.5126 3.14093
7106 1 22.6175 28.6543 5.55864
7117 2 24.1158 27.8013 4.33986
7116 1 24.1314 29.528 3.17194
7120 1 25.6072 28.6609 5.54792
7131 2 27.0699 27.6979 4.41491
7130 1 27.0677 29.522 3.092
7134 1 28.5436 28.6726 5.55793
11 1 0.273764 2.01116 7.91663
13 7 0.260992 0.288627 8.97177
9 2 1.76664 1.16094 6.72312
14 7 1.75025 2.86804 8.97177
25 1 3.24923 2.00737 7.91654
27 7 3.23951 0.288627 8.97177
23 2 4.74092 1.15516 6.72796
28 7 4.72877 2.86804 8.97177
39 1 6.2305 2.01535 7.9164
41 7 6.21803 0.288627 8.97177
37 2 7.72202 1.15626 6.73169
42 7 7.70729 2.86804 8.97177
53 1 9.21058 2.01727 7.91688
55 7 9.19655 0.288627 8.97177
51 2 10.7004 1.15009 6.72865
56 7 10.6858 2.86804 8.97177
67 1 12.1906 1.97542 7.92927
69 7 12.1751 0.288627 8.97177
65 2 13.6879 1.14941 6.73798
70 7 13.6643 2.86804 8.97177
81 1 15.1684 2.01865 7.93399
83 7 15.1536 0.288627 8.97177
79 2 16.6656 1.16106 6.75929
84 7 16.6429 2.86804 8.97177
95 1 18.1506 2.03203 7.954
97 7 18.1321 0.288627 8.97177
93 2 19.6408 1.16994 6.77443
98 7 19.6214 2.86804 8.97177
109 1 21.1206 2.02713 7.96203
111 7 21.1106 0.288627 8.97177
107 2 22.6236 1.15897 6.7607
112 7 22.5999 2.86804 8.97177
123 1 24.0871 2.00852 7.95957
125 7 24.0892 0.288627 8.97177
121 2 25.5054 1.18369 6.81308
126 7 25.5784 2.86804 8.97177
137 1 27.0586 1.98674 7.92932
139 7 27.0677 0.288627 8.97177
135 2 28.5843 1.19764 6.79353
140 7 28.5569 2.86804 8.97177
1413 7 0.260992 5.44746 8.97177
10 2 0.271859 3.73795 6.73457
12 1 1.76264 4.5964 7.9196
1427 7 3.23951 5.44746 8.97177
24 2 3.25109 3.7362 6.73174
26 1 4.74071 4.59539 7.91791
1441 7 6.21803 5.44746 8.97177
38 2 6.23105 3.73724 6.73145
40 1 7.72438 4.59814 7.91928
1455 7 9.19655 5.44746 8.97177
52 2 9.20236 3.73817 6.72598
54 1 10.6608 4.61769 7.92569
1469 7 12.1751 5.44746 8.97177
66 2 12.1751 3.72785 6.73038
68 1 13.7136 4.61764 7.93355
1483 7 15.1536 5.44746 8.97177
80 2 15.18 3.73801 6.74247
82 1 16.6511 4.60057 7.94248
1497 7 18.1321 5.44746 8.97177
94 2 18.147 3.73486 6.75778
96 1 19.6422 4.5751 7.9461
1511 7 21.1106 5.44746 8.97177
108 2 21.1282 3.7467 6.76804
110 1 22.6104 4.59376 7.97458
1525 7 24.0892 5.44746 8.97177
122 2 24.1008 3.73246 6.77881
124 1 25.5793 4.59229 7.95275
1539 7 27.0677 5.44746 8.97177
136 2 27.057 3.71888 6.76318
138 1 28.5402 4.58661 7.94459
1411 1 0.275112 7.18405 7.9227
1410 2 0.273527 8.91685 6.73049
1409 2 1.76154 6.32111 6.73488
1414 7 1.75025 8.02687 8.97177
1425 1 3.25121 7.17995 7.92077
1424 2 3.25173 8.90354 6.73598
1423 2 4.74005 6.31901 6.7329
1428 7 4.72877 8.02687 8.97177
1439 1 6.22846 7.17805 7.91985
1438 2 6.22825 8.90141 6.7349
1437 2 7.71896 6.3181 6.73233
1442 7 7.70729 8.02687 8.97177
1453 1 9.20774 7.17105 7.92257
1452 2 9.20579 8.89809 6.73712
1451 2 10.6938 6.32318 6.72967
1456 7 10.6858 8.02687 8.97177
1467 1 12.1863 7.17402 7.92443
1466 2 12.1867 8.8948 6.74224
1465 2 13.6858 6.32184 6.738
1470 7 13.6643 8.02687 8.97177
1481 1 15.1719 7.16908 7.93953
1480 2 15.1699 8.88911 6.75188
1479 2 16.6534 6.31492 6.74865
1484 7 16.6429 8.02687 8.97177
1495 1 18.1279 7.1921 7.93738
1494 2 18.1575 8.88515 6.75429
1493 2 19.6214 6.30726 6.73038
1498 7 19.6214 8.02687 8.97177
1509 1 21.1775 7.20357 7.93278
1508 2 21.0784 8.92928 6.82784
1507 2 22.6236 6.24944 6.83018
1512 7 22.5999 8.02687 8.97177
1523 1 24.0738 7.18146 7.93653
1522 2 24.1338 8.91485 6.80928
1521 2 25.5575 6.30046 6.75473
1526 7 25.5784 8.02687 8.97177
1537 1 27.0651 7.12602 7.95281
1536 2 27.0677 8.88668 6.73038
1535 6 28.5426 6.29839 6.75017
1540 7 28.5569 8.02687 8.97177
2813 7 0.260992 10.6063 8.97177
2809 2 1.76376 11.4878 6.74054
1412 1 1.7615 9.76839 7.92167
2827 7 3.23951 10.6063 8.97177
2823 2 4.73816 11.488 6.73141
1426 1 4.73835 9.76211 7.92191
2841 7 6.21803 10.6063 8.97177
2837 2 7.71312 11.4852 6.73268
1440 1 7.71529 9.75866 7.92177
2855 7 9.19655 10.6063 8.97177
2851 2 10.6903 11.4776 6.74001
1454 1 10.691 9.75637 7.92576
2869 7 12.1751 10.6063 8.97177
2865 2 13.6751 11.4705 6.74776
1468 1 13.6733 9.75134 7.93342
2883 7 15.1536 10.6063 8.97177
2879 2 16.6676 11.4575 6.7495
1482 1 16.6587 9.73917 7.94263
2897 7 18.1321 10.6063 8.97177
2893 2 19.6388 11.4639 6.77252
1496 1 19.6327 9.74709 7.96622
2911 7 21.1106 10.6063 8.97177
2907 2 22.6011 11.4438 6.7631
1510 1 22.6134 9.71811 7.94217
2925 7 24.0892 10.6063 8.97177
2921 2 25.5709 11.466 6.7615
1524 1 25.5484 9.76127 7.96399
2939 7 27.0677 10.6063 8.97177
2935 2 28.5563 11.471 6.7656
1538 1 28.5939 9.75734 7.96148
2811 1 0.266787 12.3567 7.92162
2810 2 0.258416 14.0716 6.73402
2812 1 1.75531 14.9285 7.90567
2814 7 1.75025 13.1857 8.97177
2825 1 3.25034 12.3523 7.9139
2824 2 3.24335 14.06 6.71566
2826 1 4.742 14.9292 7.88875
2828 7 4.72877 13.1857 8.97177
2839 1 6.22119 12.3398 7.9247
2838 2 6.22066 13.9966 6.77803
2840 1 7.68583 14.9219 7.89874
2842 7 7.70729 13.1857 8.97177
2853 1 9.19232 12.3426 7.92056
2852 2 9.18843 14.0591 6.73472
2854 1 10.6782 14.9141 7.9238
2856 7 10.6858 13.1857 8.97177
2867 1 12.1769 12.3334 7.93023
2866 2 12.1776 14.0513 6.74507
2868 1 13.6677 14.9065 7.93642
2870 7 13.6643 13.1857 8.97177
2881 1 15.1634 12.3248 7.93693
2880 2 15.1635 14.0458 6.75276
2882 1 16.6499 14.9046 7.9429
2884 7 16.6429 13.1857 8.97177
2895 1 18.1411 12.3228 7.94666
2894 2 18.1436 14.0438 6.76049
2896 1 19.6296 14.9031 7.94965
2898 7 19.6214 13.1857 8.97177
2909 1 21.122 12.3145 7.95314
2908 2 21.121 14.0404 6.76638
2910 1 22.6072 14.9008 7.95277
2912 7 22.5999 13.1857 8.97177
2923 1 24.0917 12.3062 7.95408
2922 2 24.0936 14.0392 6.76966
2924 1 25.5823 14.904 7.95657
2926 7 25.5784 13.1857 8.97177
2937 1 27.0663 12.3215 7.95646
2936 2 27.0677 14.0464 6.77302
2938 1 28.5575 14.9089 7.95935
2940 7 28.5569 13.1857 8.97177
4211 5 0.249709 17.4843 7.90154
4213 7 0.260992 15.7651 8.97177
4209 6 1.7444 16.6161 6.70834
4225 5 3.23707 17.4485 7.91261
4227 7 3.23951 15.7651 8.97177
4223 6 4.68044 16.6425 6.76054
4239 1 6.21464 17.4531 7.88978
4241 7 6.21803 15.7651 8.97177
4237 2 7.76282 16.6509 6.78284
4253 1 9.19884 17.4821 7.93306
4255 7 9.19655 15.7651 8.97177
4251 2 10.6852 16.633 6.73441
4267 1 12.1806 17.4848 7.93546
4269 7 12.1751 15.7651 8.97177
4265 2 13.6729 16.6262 6.75265
4281 1 15.162 17.4841 7.94275
4283 7 15.1536 15.7651 8.97177
4279 2 16.6527 16.6263 6.757
4295 1 18.1403 17.485 7.9453
4297 7 18.1321 15.7651 8.97177
4293 2 19.6302 16.6257 6.76146
4309 1 21.1169 17.486 7.94971
4311 7 21.1106 15.7651 8.97177
4307 2 22.6084 16.625 6.76605
4323 1 24.0989 17.4869 7.95347
4325 7 24.0892 15.7651 8.97177
4321 2 25.5877 16.6293 6.76936
4337 1 27.0818 17.4939 7.95219
4339 7 27.0677 15.7651 8.97177
4335 2 28.5684 16.6327 6.76251
5613 7 0.260992 20.9239 8.97177
4210 6 0.238624 19.1824 6.70315
4212 5 1.7087 20.0663 7.91473
4214 7 1.75025 18.3445 8.97177
5627 7 3.23951 20.9239 8.97177
4224 6 3.23951 19.2043 6.73038
4226 1 4.76965 20.0563 7.91784
4228 7 4.72877 18.3445 8.97177
5641 7 6.21803 20.9239 8.97177
4238 2 6.22937 19.1782 6.72211
4240 1 7.70382 20.0423 7.92319
4242 7 7.70729 18.3445 8.97177
5655 7 9.19655 20.9239 8.97177
4252 2 9.19409 19.1906 6.74911
4254 1 10.6948 20.0577 7.94037
4256 7 10.6858 18.3445 8.97177
5669 7 12.1751 20.9239 8.97177
4266 2 12.1897 19.2019 6.75938
4268 1 13.6816 20.0672 7.93941
4270 7 13.6643 18.3445 8.97177
5683 7 15.1536 20.9239 8.97177
4280 2 15.1662 19.2096 6.75489
4282 1 16.6523 20.062 7.95001
4284 7 16.6429 18.3445 8.97177
5697 7 18.1321 20.9239 8.97177
4294 2 18.1405 19.2116 6.75681
4296 1 19.6209 20.0703 7.94534
4298 7 19.6214 18.3445 8.97177
5711 7 21.1106 20.9239 8.97177
4308 2 21.1164 19.208 6.76405
4310 1 22.606 20.0652 7.95319
4312 7 22.5999 18.3445 8.97177
5725 7 24.0892 20.9239 8.97177
4322 2 24.1014 19.2069 6.7684
4324 1 25.5963 20.0671 7.95395
4326 7 25.5784 18.3445 8.97177
5739 7 27.0677 20.9239 8.97177
4336 2 27.0877 19.2151 6.76784
4338 1 28.5843 20.081 7.93624
4340 7 28.5569 18.3445 8.97177
5611 1 0.26524 22.6112 7.91316
5609 6 1.74824 21.7662 6.72117
5614 7 1.75025 23.5034 8.97177
5625 1 3.2453 22.6169 7.91789
5623 2 4.74151 21.7663 6.72792
5628 7 4.72877 23.5034 8.97177
5639 1 6.22502 22.6128 7.92569
5637 2 7.72468 21.7588 6.73415
5642 7 7.70729 23.5034 8.97177
5653 1 9.20669 22.6252 7.9354
5651 2 10.7015 21.7771 6.75932
5656 7 10.6858 23.5034 8.97177
5667 1 12.1971 22.6355 7.94059
5665 2 13.6818 21.7801 6.74717
5670 7 13.6643 23.5034 8.97177
5681 1 15.1851 22.6471 7.92085
5679 2 16.6531 21.7213 6.80482
5684 7 16.6429 23.5034 8.97177
5695 1 18.1189 22.6505 7.92483
5693 2 19.6174 21.7891 6.76017
5698 7 19.6214 23.5034 8.97177
5709 1 21.1074 22.6422 7.95138
5707 2 22.6058 21.7832 6.7696
5712 7 22.5999 23.5034 8.97177
5723 1 24.0957 22.6387 7.96088
5721 2 25.5944 21.7801 6.77165
5726 7 25.5784 23.5034 8.97177
5737 1 27.0787 22.6406 7.96931
5735 2 28.5156 21.8156 6.82047
5740 7 28.5569 23.5034 8.97177
7013 7 0.260992 26.0828 8.97177
5610 2 0.268846 24.3391 6.73144
7009 2 1.76117 26.9244 6.74037
5612 1 1.75752 25.1984 7.92262
7027 7 3.23951 26.0828 8.97177
5624 2 3.2487 24.3416 6.7379
7023 2 4.74084 26.9257 6.74702
5626 1 4.73748 25.1998 7.92943
7041 7 6.21803 26.0828 8.97177
5638 2 6.22925 24.3427 6.74547
7037 2 7.72036 26.9276 6.75521
5640 1 7.71607 25.2028 7.93786
7055 7 9.19655 26.0828 8.97177
5652 2 9.21055 24.3486 6.7546
7051 2 10.7016 26.9279 6.76392
5654 1 10.6981 25.2074 7.9468
7069 7 12.1751 26.0828 8.97177
5666 2 12.1964 24.35 6.75829
7065 2 13.6858 26.9244 6.76461
5668 1 13.6785 25.2092 7.95464
5680 2 15.1161 24.3821 6.80759
7083 7 15.1536 26.0828 8.97177
7079 2 16.6565 26.9154 6.76513
5682 1 16.6547 25.1858 7.9275
7097 7 18.1321 26.0828 8.97177
5694 2 18.1949 24.3856 6.81013
7093 2 19.628 26.9286 6.7699
5696 1 19.6303 25.2136 7.96056
7111 7 21.1106 26.0828 8.97177
5708 2 21.1142 24.3553 6.76842
7107 2 22.6124 26.9353 6.78143
5710 1 22.6084 25.2152 7.96396
7125 7 24.0892 26.0828 8.97177
5722 2 24.0999 24.3578 6.78042
7121 2 25.5915 26.9393 6.79029
5724 1 25.5894 25.2159 7.97572
7139 7 27.0677 26.0828 8.97177
5736 2 27.085 24.3516 6.78516
7135 2 28.5761 26.9377 6.79085
5738 1 28.5796 25.2114 7.96795
7011 1 0.269966 27.7823 7.92568
7010 2 0.272625 29.5085 6.74421
7014 7 1.75025 28.6622 8.97177
7025 1 3.24917 27.783 7.93172
7024 2 3.25253 29.5088 6.74992
7028 7 4.72877 28.6622 8.97177
7039 1 6.22818 27.785 7.939
7038 2 6.23233 29.5105 6.7568
7042 7 7.70729 28.6622 8.97177
7053 1 9.20728 27.786 7.94844
7052 2 9.21133 29.5106 6.7669
7056 7 10.6858 28.6622 8.97177
7067 1 12.1894 27.7853 7.95556
7066 2 12.1911 29.5045 6.77778
7070 7 13.6643 28.6622 8.97177
7081 1 15.1702 27.7759 7.95362
7080 2 15.1693 29.5047 6.77567
7084 7 16.6429 28.6622 8.97177
7095 1 18.1413 27.7784 7.95514
7094 2 18.1441 29.506 6.77516
7098 7 19.6214 28.6622 8.97177
7109 1 21.1209 27.792 7.96458
7108 2 21.1236 29.5116 6.78162
7112 7 22.5999 28.6622 8.97177
7123 1 24.1065 27.7971 7.97074
7122 2 24.109 29.5115 6.78906
7126 7 25.5784 28.6622 8.97177
7137 1 27.0906 27.7999 7.96772
7136 2 27.0976 29.5101 6.77004
7140 7 28.5569 28.6622 8.97177
8401 7 0.260992 31.2416 2.03646
8415 7 3.23951 31.2416 2.03646
8429 7 6.21803 31.2416 2.03646
8443 7 9.19655 31.2416 2.03646
8457 7 12.1751 31.2416 2.03646
8471 7 15.1536 31.2416 2.03646
8485 7 18.1321 31.2416 2.03646
8499 7 21.1106 31.2416 2.03646
8513 7 24.0892 31.2416 2.03646
8527 7 27.0677 31.2416 2.03646
8402 7 1.75025 33.821 2.03646
8416 7 4.72877 33.821 2.03646
8430 7 7.70729 33.821 2.03646
8444 7 10.6858 33.821 2.03646
8458 7 13.6643 33.821 2.03646
8472 7 16.6429 33.821 2.03646
8486 7 19.6214 33.821 2.03646
8500 7 22.5999 33.821 2.03646
8514 7 25.5784 33.821 2.03646
8528 7 28.5569 33.821 2.03646
9801 7 0.260992 36.4004 2.03646
9802 7 1.75025 38.9799 2.03646
9815 7 3.23951 36.4004 2.03646
9816 7 4.72877 38.9799 2.03646
9829 7 6.21803 36.4004 2.03646
9830 7 7.70729 38.9799 2.03646
9843 7 9.19655 36.4004 2.03646
9844 7 10.6858 38.9799 2.03646
9857 7 12.1751 36.4004 2.03646
9858 7 13.6643 38.9799 2.03646
9871 7 15.1536 36.4004 2.03646
9872 7 16.6429 38.9799 2.03646
9885 7 18.1321 36.4004 2.03646
9886 7 19.6214 38.9799 2.03646
9899 7 21.1106 36.4004 2.03646
9900 7 22.5999 38.9799 2.03646
9913 7 24.0892 36.4004 2.03646
9914 7 25.5784 38.9799 2.03646
9927 7 27.0677 36.4004 2.03646
9928 7 28.5569 38.9799 2.03646
11201 7 0.260992 41.5593 2.03646
11215 7 3.23951 41.5593 2.03646
11229 7 6.21803 41.5593 2.03646
11243 7 9.19655 41.5593 2.03646
11257 7 12.1751 41.5593 2.03646
11271 7 15.1536 41.5593 2.03646
11285 7 18.1321 41.5593 2.03646
11299 7 21.1106 41.5593 2.03646
11313 7 24.0892 41.5593 2.03646
11327 7 27.0677 41.5593 2.03646
11202 7 1.75025 44.1387 2.03646
11216 7 4.72877 44.1387 2.03646
11230 7 7.70729 44.1387 2.03646
11244 7 10.6858 44.1387 2.03646
11258 7 13.6643 44.1387 2.03646
11272 7 16.6429 44.1387 2.03646
11286 7 19.6214 44.1387 2.03646
11300 7 22.5999 44.1387 2.03646
11314 7 25.5784 44.1387 2.03646
11328 7 28.5569 44.1387 2.03646
12601 7 0.260992 46.7181 2.03646
12615 7 3.23951 46.7181 2.03646
12629 7 6.21803 46.7181 2.03646
12643 7 9.19655 46.7181 2.03646
12657 7 12.1751 46.7181 2.03646
12671 7 15.1536 46.7181 2.03646
12685 7 18.1321 46.7181 2.03646
12699 7 21.1106 46.7181 2.03646
12713 7 24.0892 46.7181 2.03646
12727 7 27.0677 46.7181 2.03646
12602 7 1.75025 49.2975 2.03646
12616 7 4.72877 49.2975 2.03646
12630 7 7.70729 49.2975 2.03646
12644 7 10.6858 49.2975 2.03646
12658 7 13.6643 49.2975 2.03646
12672 7 16.6429 49.2975 2.03646
12686 7 19.6214 49.2975 2.03646
12700 7 22.5999 49.2975 2.03646
12714 7 25.5784 49.2975 2.03646
12728 7 28.5569 49.2975 2.03646
14001 7 0.260992 51.8769 2.03646
14015 7 3.23951 51.8769 2.03646
14029 7 6.21803 51.8769 2.03646
14043 7 9.19655 51.8769 2.03646
14057 7 12.1751 51.8769 2.03646
14071 7 15.1536 51.8769 2.03646
14085 7 18.1321 51.8769 2.03646
14099 7 21.1106 51.8769 2.03646
14113 7 24.0892 51.8769 2.03646
14127 7 27.0677 51.8769 2.03646
15401 7 0.260992 57.0358 2.03646
14002 7 1.75025 54.4563 2.03646
15415 7 3.23951 57.0358 2.03646
14016 7 4.72877 54.4563 2.03646
14018 1 3.24018 55.3249 3.06085
15429 7 6.21803 57.0358 2.03646
14030 7 7.70729 54.4563 2.03646
14032 1 6.23196 55.3275 3.05531
15443 7 9.19655 57.0358 2.03646
14044 7 10.6858 54.4563 2.03646
15457 7 12.1751 57.0358 2.03646
14058 7 13.6643 54.4563 2.03646
15471 7 15.1536 57.0358 2.03646
14072 7 16.6429 54.4563 2.03646
15485 7 18.1321 57.0358 2.03646
14086 7 19.6214 54.4563 2.03646
15499 7 21.1106 57.0358 2.03646
14100 7 22.5999 54.4563 2.03646
15513 7 24.0892 57.0358 2.03646
14114 7 25.5784 54.4563 2.03646
15527 7 27.0677 57.0358 2.03646
14128 7 28.5569 54.4563 2.03646
15402 7 1.75025 59.6152 2.03646
15403 1 1.7941 57.881 3.05218
15416 7 4.72877 59.6152 2.03646
15417 1 4.73562 57.8958 3.05188
15430 7 7.70729 59.6152 2.03646
15431 1 7.68263 57.8798 3.05311
15444 7 10.6858 59.6152 2.03646
15445 1 10.7431 57.8792 3.0591
15458 7 13.6643 59.6152 2.03646
15459 1 13.6839 57.8977 3.06281
15472 7 16.6429 59.6152 2.03646
15486 7 19.6214 59.6152 2.03646
15500 7 22.5999 59.6152 2.03646
15514 7 25.5784 59.6152 2.03646
15528 7 28.5569 59.6152 2.03646
8405 2 0.278022 32.9601 4.30138
8407 1 0.275407 31.2342 5.52268
8403 1 1.77062 32.1025 3.11542
7006 2 1.76796 30.3766 4.29655
8419 2 3.25826 32.9601 4.3062
8421 1 3.25588 31.2345 5.52805
8417 1 4.75278 32.1025 3.12031
7020 2 4.74895 30.3774 4.30221
8433 2 6.24142 32.9603 4.31105
8435 1 6.23671 31.2359 5.53358
8431 1 7.74311 32.1076 3.12686
7034 2 7.73052 30.3795 4.30948
8447 2 9.22718 32.9624 4.32427
8449 1 9.21612 31.2367 5.54471
8445 1 10.733 32.1096 3.15826
7048 2 10.704 30.3745 4.31797
8461 2 12.1942 32.8555 4.39587
8463 1 12.1924 31.2224 5.56241
8459 1 13.658 32.1079 3.1643