ITEM: TIMESTEP
0
ITEM: NUMBER OF ATOMS
81200
ITEM: BOX BOUNDS pp pp pp
1.8233218194756934e-01 2.9811716371408272e+02
1.7272744856045613e-01 2.9947498452561371e+02
0.0000000000000000e+00 4.9031656433928198e+01
ITEM: ATOMS id type x y z
1 7 0.219574 0.243585 2.03646
2 7 1.70925 2.82378 2.03646
15 7 3.19892 0.243585 2.03646
16 7 4.6886 2.82378 2.03646
29 7 6.17827 0.243585 2.03646
30 7 7.66794 2.82378 2.03646
43 7 9.15762 0.243585 2.03646
44 7 10.6473 2.82378 2.03646
57 7 12.137 0.243585 2.03646
58 7 13.6266 2.82378 2.03646
71 7 15.1163 0.243585 2.03646
72 7 16.606 2.82378 2.03646
85 7 18.0957 0.243585 2.03646
86 7 19.5853 2.82378 2.03646
99 7 21.075 0.243585 2.03646
100 7 22.5647 2.82378 2.03646
113 7 24.0544 0.243585 2.03646
114 7 25.544 2.82378 2.03646
127 7 27.0337 0.243585 2.03646
128 7 28.5234 2.82378 2.03646
1401 7 0.219574 5.40397 2.03646
1415 7 3.19892 5.40397 2.03646
1429 7 6.17827 5.40397 2.03646
1443 7 9.15762 5.40397 2.03646
1457 7 12.137 5.40397 2.03646
1471 7 15.1163 5.40397 2.03646
1485 7 18.0957 5.40397 2.03646
1499 7 21.075 5.40397 2.03646
1513 7 24.0544 5.40397 2.03646
1527 7 27.0337 5.40397 2.03646
1402 7 1.70925 7.98416 2.03646
1416 7 4.6886 7.98416 2.03646
1430 7 7.66794 7.98416 2.03646
1444 7 10.6473 7.98416 2.03646
1458 7 13.6266 7.98416 2.03646
1472 7 16.606 7.98416 2.03646
1486 7 19.5853 7.98416 2.03646
1500 7 22.5647 7.98416 2.03646
1514 7 25.544 7.98416 2.03646
1528 7 28.5234 7.98416 2.03646
2801 7 0.219574 10.5644 2.03646
2815 7 3.19892 10.5644 2.03646
2829 7 6.17827 10.5644 2.03646
2843 7 9.15762 10.5644 2.03646
2857 7 12.137 10.5644 2.03646
2871 7 15.1163 10.5644 2.03646
2885 7 18.0957 10.5644 2.03646
2899 7 21.075 10.5644 2.03646
2913 7 24.0544 10.5644 2.03646
2927 7 27.0337 10.5644 2.03646
2802 7 1.70925 13.1445 2.03646
2816 7 4.6886 13.1445 2.03646
2830 7 7.66794 13.1445 2.03646
2844 7 10.6473 13.1445 2.03646
2858 7 13.6266 13.1445 2.03646
2872 7 16.606 13.1445 2.03646
2886 7 19.5853 13.1445 2.03646
2900 7 22.5647 13.1445 2.03646
2914 7 25.544 13.1445 2.03646
2928 7 28.5234 13.1445 2.03646
4201 7 0.219574 15.7247 2.03646
4215 7 3.19892 15.7247 2.03646
4229 7 6.17827 15.7247 2.03646
4243 7 9.15762 15.7247 2.03646
4257 7 12.137 15.7247 2.03646
4271 7 15.1163 15.7247 2.03646
4285 7 18.0957 15.7247 2.03646
4299 7 21.075 15.7247 2.03646
4313 7 24.0544 15.7247 2.03646
4327 7 27.0337 15.7247 2.03646
5601 7 0.219574 20.8851 2.03646
4202 7 1.70925 18.3049 2.03646
5615 7 3.19892 20.8851 2.03646
4216 7 4.6886 18.3049 2.03646
5629 7 6.17827 20.8851 2.03646
4230 7 7.66794 18.3049 2.03646
5643 7 9.15762 20.8851 2.03646
4244 7 10.6473 18.3049 2.03646
5657 7 12.137 20.8851 2.03646
4258 7 13.6266 18.3049 2.03646
5671 7 15.1163 20.8851 2.03646
4272 7 16.606 18.3049 2.03646
5685 7 18.0957 20.8851 2.03646
4286 7 19.5853 18.3049 2.03646
5699 7 21.075 20.8851 2.03646
4300 7 22.5647 18.3049 2.03646
5713 7 24.0544 20.8851 2.03646
4314 7 25.544 18.3049 2.03646
5727 7 27.0337 20.8851 2.03646
4328 7 28.5234 18.3049 2.03646
5602 7 1.70925 23.4653 2.03646
5616 7 4.6886 23.4653 2.03646
5630 7 7.66794 23.4653 2.03646
5644 7 10.6473 23.4653 2.03646
5658 7 13.6266 23.4653 2.03646
5672 7 16.606 23.4653 2.03646
5686 7 19.5853 23.4653 2.03646
5700 7 22.5647 23.4653 2.03646
5714 7 25.544 23.4653 2.03646
5728 7 28.5234 23.4653 2.03646
7001 7 0.219574 26.0455 2.03646
7015 7 3.19892 26.0455 2.03646
7029 7 6.17827 26.0455 2.03646
7043 7 9.15762 26.0455 2.03646
7057 7 12.137 26.0455 2.03646
7071 7 15.1163 26.0455 2.03646
7085 7 18.0957 26.0455 2.03646
7099 7 21.075 26.0455 2.03646
7113 7 24.0544 26.0455 2.03646
7127 7 27.0337 26.0455 2.03646
7002 7 1.70925 28.6257 2.03646
7016 7 4.6886 28.6257 2.03646
7030 7 7.66794 28.6257 2.03646
7044 7 10.6473 28.6257 2.03646
7058 7 13.6266 28.6257 2.03646
7072 7 16.606 28.6257 2.03646
7086 7 19.5853 28.6257 2.03646
7100 7 22.5647 28.6257 2.03646
7114 7 25.544 28.6257 2.03646
7128 7 28.5234 28.6257 2.03646
5 2 0.228798 1.97577 4.34702
7 1 0.228501 0.255447 5.57696
3 1 1.72119 1.1109 3.16437
8 1 1.71867 2.83888 5.57257
19 2 3.21084 1.97461 4.34987
21 1 3.20972 0.256375 5.58117
17 1 4.704 1.10978 3.16837
22 1 4.70031 2.83864 5.57558
33 2 6.19343 1.97379 4.35372
35 1 6.19216 0.256914 5.58593
31 1 7.68761 1.10826 3.17294
36 1 7.6824 2.83804 5.57934
47 2 9.17654 1.97235 4.35823
49 1 9.17525 0.256541 5.59119
45 1 10.6718 1.10587 3.17824
50 1 10.665 2.83686 5.58378
61 2 12.1602 1.97032 4.36343
63 1 12.159 0.255582 5.59722
59 1 13.6564 1.1029 3.18425
64 1 13.6482 2.83554 5.58879
75 2 15.144 1.96835 4.36942
77 1 15.1433 0.254854 5.60419
73 1 16.6414 1.09999 3.19183
78 1 16.6312 2.83499 5.59464
89 2 18.1269 1.9665 4.37697
91 1 18.128 0.254095 5.61408
87 1 19.6245 1.09542 3.20121
92 1 19.6128 2.8377 5.60106
103 2 21.0991 1.97216 4.38677
105 1 21.1101 0.242166 5.62856
101 1 22.5796 1.08637 3.23036
106 1 22.5846 2.82823 5.60472
117 2 24.069 1.94584 4.39594
119 1 24.0748 0.20771 5.59488
115 1 25.5572 1.05844 3.25229
120 1 25.5549 2.78977 5.59372
131 2 27.0224 2.02598 4.31986
133 5 27.0337 0.243585 5.50412
129 1 28.4833 1.09022 3.19665
134 1 28.4926 2.79393 5.58077
147 1 29.9606 0.253636 5.58267
1407 1 0.228355 5.42197 5.56733
4 1 0.227167 3.69557 3.15769
6 2 1.71883 4.55793 4.3425
1421 1 3.20922 5.42154 5.56746
18 1 3.211 3.69335 3.15939
20 2 4.70099 4.55677 4.34427
1435 1 6.19009 5.42064 5.56945
32 1 6.19395 3.69147 3.16227
34 2 7.68301 4.55519 4.34715
1449 1 9.17151 5.41909 5.57235
46 1 9.17695 3.68905 3.16596
48 2 10.6655 4.55286 4.35081
1463 1 12.154 5.41703 5.57581
60 1 12.1603 3.68593 3.17022
62 2 13.6487 4.5503 4.35489
1477 1 15.1377 5.41522 5.57958
74 1 15.1436 3.68289 3.17492
76 2 16.6317 4.54857 4.35944
1491 1 18.1233 5.41659 5.58237
88 1 18.1248 3.67968 3.18105
90 2 19.6134 4.54987 4.3677
1505 1 21.1122 5.44294 5.58489
102 1 21.0999 3.68661 3.18829
104 2 22.5796 4.5508 4.36851
1519 1 24.0434 5.43042 5.58042
116 1 24.0627 3.66557 3.18882
118 2 25.5349 4.53291 4.36437
1533 1 27.0201 5.39857 5.57259
130 1 27.0168 3.67274 3.16613
132 2 28.5081 4.53406 4.35267
1405 2 0.228586 7.14095 4.33708
1404 1 0.228039 8.85958 3.1466
1403 1 1.71874 6.27689 3.15273
1408 1 1.71965 8.00563 5.56061
1419 2 3.20974 7.14039 4.33651
1418 1 3.2106 8.85904 3.1456
1417 1 4.70126 6.27549 3.15347
1422 1 4.69895 8.00464 5.56088
1433 2 6.1903 7.13932 4.33782
1432 1 6.19032 8.85947 3.14725
1431 1 7.68293 6.27336 3.15566
1436 1 7.67816 8.00285 5.56266
1447 2 9.17125 7.1366 4.34014
1446 1 9.17033 8.85516 3.14886
1445 1 10.6653 6.26976 3.15851
1450 1 10.6592 7.9998 5.56499
1461 2 12.1539 7.13278 4.34315
1460 1 12.1537 8.84899 3.15114
1459 1 13.6484 6.26583 3.16181
1464 1 13.6432 7.99591 5.56794
1475 2 15.1379 7.1296 4.34665
1474 1 15.1382 8.8447 3.15439
1473 1 16.6304 6.26333 3.16603
1478 1 16.6311 7.99279 5.57092
1489 2 18.1228 7.12933 4.35345
1488 1 18.1252 8.83873 3.16088
1487 1 19.6061 6.25991 3.16493
1492 1 19.6425 7.98949 5.57247
1503 2 21.0405 7.0934 4.30765
1502 1 21.1091 8.82644 3.18284
1501 1 22.5757 6.27828 3.1926
1506 5 22.5647 7.98416 5.50412
1517 2 24.1071 7.08661 4.30502
1516 1 24.0332 8.82438 3.18059
1515 1 25.5378 6.25274 3.1591
1520 1 25.5012 7.98199 5.56733
1531 2 27.0184 7.12042 4.34656
1530 1 27.014 8.83413 3.15473
1529 1 28.509 6.25581 3.15869
1534 1 28.5072 7.98353 5.56373
2807 1 0.227769 10.5914 5.55289
2803 1 1.71957 11.4347 3.13761
1406 2 1.71942 9.72296 4.32948
2821 1 3.21065 10.5912 5.55199
2817 1 4.70138 11.4459 3.14209
1420 2 4.69974 9.72477 4.33007
2835 1 6.18615 10.5906 5.55499
2831 1 7.67543 11.4447 3.14444
1434 2 7.67704 9.72287 4.33181
2849 1 9.16218 10.5863 5.55577
2845 1 10.6578 11.4314 3.14282
1448 2 10.6584 9.71629 4.33348
2863 1 12.1465 10.5779 5.5582
2859 1 13.6414 11.4277 3.1448
1462 2 13.6423 9.7113 4.33592
2877 1 15.1309 10.5732 5.56115
2873 1 16.6251 11.4228 3.14798
1476 2 16.6276 9.70654 4.33944
2891 1 18.1165 10.5662 5.56421
2887 1 19.6059 11.4144 3.15223
1490 2 19.6129 9.69714 4.34517
2905 1 21.1049 10.5335 5.56277
2901 1 22.57 11.4199 3.1431
1504 2 22.5708 9.7628 4.29569
2919 1 24.0375 10.5307 5.56055
2915 1 25.533 11.4131 3.14829
1518 2 25.528 9.69325 4.34103
2933 1 27.0233 10.5618 5.55844
2929 1 28.511 11.421 3.14132
1532 2 28.5097 9.70138 4.33265
2805 2 0.225405 12.303 4.32373
2804 1 0.231662 14.0082 3.12114
2806 2 1.71597 14.8757 4.31659
2808 1 1.71653 13.1678 5.53939
2819 2 3.21217 12.303 4.32409
2818 1 3.20783 14.0098 3.12511
2820 2 4.64066 14.8426 4.27217
2822 1 4.71371 13.1956 5.54466
2833 2 6.186 12.3127 4.32817
2832 1 6.18626 14.0356 3.15864
2834 2 7.72635 14.8418 4.27555
2836 1 7.65309 13.1933 5.54792
2847 2 9.1598 12.2999 4.32905
2846 1 9.16522 14.0098 3.1317
2848 2 10.6474 14.8738 4.32482
2850 1 10.6469 13.1603 5.54919
2861 2 12.1456 12.2935 4.32742
2860 1 12.1459 14.0098 3.13829
2862 2 13.6341 14.8717 4.32374
2864 1 13.6342 13.1548 5.5531
2875 2 15.1296 12.2895 4.33007
2874 1 15.1284 14.0079 3.14017
2876 2 16.6163 14.8703 4.32531
2878 1 16.6177 13.1508 5.55538
2889 2 18.1118 12.2837 4.33239
2888 1 18.1082 14.0046 3.14156
2890 2 19.5946 14.8674 4.32566
2892 1 19.5989 13.1431 5.55554
2903 2 21.0849 12.2777 4.33504
2902 1 21.0821 14.0035 3.14088
2904 2 22.5704 14.8656 4.32379
2906 1 22.5713 13.1398 5.55271
2917 2 24.0558 12.2767 4.33303
2916 1 24.0567 14.003 3.13874
2918 2 25.5457 14.8675 4.32196
2920 1 25.5424 13.1424 5.55148
2931 2 27.0267 12.2825 4.32689
2930 1 27.0293 14.006 3.13612
2932 2 28.5208 14.874 4.31884
2934 1 28.5197 13.1503 5.54851
4205 2 0.210244 17.4352 4.30778
4207 1 0.188271 15.7335 5.52635
4203 1 1.71826 16.5754 3.12712
4219 2 3.21055 17.433 4.31254
4221 1 3.23275 15.7314 5.53514
4217 1 4.7147 16.5692 3.15093
4233 2 6.18236 17.5001 4.2691
4235 5 6.17827 15.7247 5.50412
4231 1 7.65255 16.5713 3.15493
4247 2 9.15033 17.4381 4.32072
4249 1 9.1234 15.7319 5.54407
4245 1 10.6439 16.5831 3.13629
4261 2 12.1405 17.4483 4.3196
4263 1 12.1367 15.7336 5.54706
4259 1 13.6338 16.5899 3.13537
4275 2 15.1253 17.4547 4.32146
4277 1 15.1239 15.7338 5.54946
4273 1 16.615 16.5924 3.13704
4289 2 18.1027 17.455 4.32226
4291 1 18.1046 15.7318 5.55036
4287 1 19.5921 16.5904 3.13637
4303 2 21.0813 17.4509 4.32081
4305 1 21.0826 15.7296 5.54922
4301 1 22.5699 16.5874 3.1341
4317 2 24.0608 17.4502 4.3186
4319 1 24.0603 15.7293 5.54709
4315 1 25.5465 16.5883 3.13262
4331 2 27.0411 17.4552 4.31972
4333 1 27.0386 15.7364 5.54444
4329 1 28.5222 16.6006 3.13302
5607 1 0.213196 20.8599 5.52231
4204 1 0.215758 19.1418 3.12122
4206 2 1.71024 20.0056 4.30289
4208 1 1.70285 18.2927 5.52954
5621 1 3.20368 20.8664 5.52918
4218 1 3.20861 19.1444 3.12376
4220 2 4.69351 20.0074 4.3104
4222 1 4.70917 18.266 5.53387
5635 1 6.18346 20.869 5.5331
4232 1 6.184 19.1559 3.12028
4234 2 7.67338 20.0114 4.31508
4236 1 7.65169 18.2689 5.53847
5649 1 9.16288 20.8748 5.53883
4246 1 9.15685 19.153 3.13194
4248 2 10.6535 20.0203 4.31564
4250 1 10.6477 18.3045 5.54354
5663 1 12.1523 20.8874 5.54101
4260 1 12.1432 19.163 3.13209
4262 2 13.641 20.0307 4.32149
4264 1 13.6369 18.316 5.5451
5677 1 15.1461 20.9221 5.54419
4274 1 15.1275 19.1785 3.13733
4276 2 16.6149 20.0445 4.32424
4278 1 16.6144 18.3193 5.54774
5691 1 18.0842 20.9245 5.54456
4288 1 18.101 19.1803 3.13792
4290 2 19.5875 20.0346 4.32285
4292 1 19.5897 18.3175 5.54635
5705 1 21.0776 20.8932 5.54304
4302 1 21.0809 19.1697 3.13317
4304 2 22.5722 20.0304 4.3182
4306 1 22.5723 18.3118 5.54485
5719 1 24.0686 20.8892 5.5435
4316 1 24.0604 19.1699 3.13148
4318 2 25.5569 20.0324 4.32009
4320 1 25.5566 18.3148 5.54153
5733 1 27.0812 20.8895 5.54058
4330 1 27.0356 19.1704 3.12488
4332 2 28.4739 20.0008 4.26914
4334 1 28.5453 18.3469 5.53883
5605 2 0.224251 22.5851 4.29589
5603 1 1.71511 21.725 3.11448
5608 1 1.71415 23.4484 5.52455
5619 2 3.2056 22.5895 4.30229
5617 1 4.69596 21.7312 3.12
5622 1 4.69586 23.4522 5.53106
5633 2 6.18702 22.5934 4.30765
5631 1 7.67786 21.7354 3.12485
5636 1 7.67795 23.4552 5.53661
5647 2 9.1692 22.597 4.31311
5645 1 10.6575 21.7389 3.12924
5650 1 10.6654 23.4583 5.54106
5661 2 12.1552 22.6035 4.31989
5659 1 13.6378 21.7435 3.1277
5664 1 13.6783 23.4615 5.5435
5675 2 15.0754 22.5742 4.27494
5673 1 16.6157 21.7715 3.15837
5678 5 16.606 23.4653 5.50412
5689 2 18.1568 22.5773 4.27538
5687 1 19.5936 21.748 3.12874
5692 1 19.5557 23.4653 5.54413
5703 2 21.0781 22.6099 4.32212
5701 1 22.5744 21.7489 3.13277
5706 1 22.5693 23.4658 5.54523
5717 2 24.0663 22.6066 4.31913
5715 1 25.5605 21.7457 3.13475
5720 1 25.5595 23.4606 5.5465
5731 2 27.0534 22.6004 4.32065
5729 1 28.5454 21.7375 3.15168
5734 1 28.5532 23.4315 5.53896
7007 1 0.22761 26.0324 5.52102
5604 1 0.230607 24.3099 3.10873
7003 1 1.7235 26.8964 3.11263
5606 2 1.71895 25.1723 4.29826
7021 1 3.20767 26.0341 5.52819
5618 1 3.20992 24.3125 3.11567
7017 1 4.70389 26.8982 3.11966
5620 2 4.69958 25.1748 4.30495
7035 1 6.18892 26.0361 5.535
5632 1 6.19118 24.3157 3.12176
7031 1 7.68532 26.9 3.12664
5634 2 7.68145 25.177 4.31117
7049 1 9.17124 26.0366 5.54124
5646 1 9.17411 24.3178 3.12752
7045 1 10.6674 26.8984 3.13273
5648 2 10.666 25.1771 4.31688
7063 1 12.1573 26.0336 5.54616
5660 1 12.1617 24.3167 3.13515
7059 1 13.6494 26.8923 3.13856
5662 2 13.6536 25.172 4.32371
7077 1 15.1496 26.003 5.5454
5674 1 15.1506 24.309 3.15839
7073 1 16.6179 26.8995 3.13029
5676 2 16.6182 25.2397 4.2759
7091 1 18.087 26.0054 5.54479
5688 1 18.0847 24.3108 3.15814
7087 1 19.5903 26.8927 3.13762
5690 2 19.5835 25.1752 4.32386
7105 1 21.0807 26.0381 5.5467
5702 1 21.0761 24.3227 3.13688
7101 1 22.5855 26.9053 3.1365
5704 2 22.5742 25.1842 4.32074
7119 1 24.0684 26.0431 5.55038
5716 1 24.066 24.3275 3.13415
7115 1 25.5792 26.9131 3.16137
5718 2 25.5545 25.1805 4.32086
7133 1 27.0504 26.0277 5.55739
5730 1 27.0462 24.3215 3.13417
7129 1 28.5005 26.9174 3.15473
5732 2 28.5331 25.179 4.31707
7005 2 0.231917 27.757 4.29561
7004 1 0.235784 29.4814 3.11074
7008 1 1.71937 28.6173 5.52606
7019 2 3.21181 27.7577 4.30268
7018 1 3.21586 29.4814 3.11778
7022 1 4.7002 28.6184 5.53305
7033 2 6.19295 27.7593 4.30966
7032 1 6.19777 29.4838 3.1249
7036 1 7.68132 28.6192 5.5407
7047 2 9.174 27.7594 4.31646
7046 1 9.17809 29.486 3.13243
7050 1 10.6612 28.6156 5.54793
7061 2 12.1554 27.7553 4.32165
7060 1 12.1542 29.4814 3.13715
7064 1 13.6444 28.6093 5.5497
7075 2 15.1304 27.7513 4.32475
7074 1 15.1266 29.4826 3.13691
7078 1 16.6173 28.6097 5.54591
7089 2 18.1059 27.7515 4.32364
7088 1 18.1057 29.4784 3.13508
7092 1 19.5935 28.6118 5.54663
7103 2 21.0868 27.7564 4.32146
7102 1 21.0899 29.474 3.13525
7106 1 22.5798 28.618 5.55127
7117 2 24.0771 27.7646 4.33167
7116 1 24.0907 29.4904 3.1625
7120 1 25.5719 28.6249 5.53531
7131 2 27.0456 27.6626 4.39311
7130 5 27.0337 29.4858 3.092
7134 1 28.5315 28.6254 5.52785
11 1 0.227211 1.98242 7.98602
13 7 0.219574 0.243585 8.97177
9 2 1.71793 1.11991 6.80319
14 7 1.70925 2.82378 8.97177
25 1 3.20734 1.98438 7.98899
27 7 3.19892 0.243585 8.97177
23 2 4.69924 1.12109 6.80721
28 7 4.6886 2.82378 8.97177
39 1 6.18836 1.98576 7.9929
41 7 6.17827 0.243585 8.97177
37 2 7.68128 1.12159 6.81179
42 7 7.66794 2.82378 8.97177
53 1 9.17006 1.98646 7.99738
55 7 9.15762 0.243585 8.97177
51 2 10.664 1.12156 6.81706
56 7 10.6473 2.82378 8.97177
67 1 12.1524 1.98693 8.00255
69 7 12.137 0.243585 8.97177
65 2 13.6472 1.12145 6.82308
70 7 13.6266 2.82378 8.97177
81 1 15.1352 1.98792 8.00856
83 7 15.1163 0.243585 8.97177
79 2 16.6303 1.12207 6.83042
84 7 16.606 2.82378 8.97177
95 1 18.1169 1.99133 8.01564
97 7 18.0957 0.243585 8.97177
93 2 19.6102 1.12445 6.83768
98 7 19.5853 2.82378 8.97177
109 1 21.0956 1.98012 8.01899
111 7 21.075 0.243585 8.97177
107 2 22.5881 1.10618 6.82967
112 7 22.5647 2.82378 8.97177
123 1 24.0611 1.96737 8.00938
125 7 24.0544 0.243585 8.97177
121 2 25.4801 1.13913 6.86052
126 7 25.544 2.82378 8.97177
137 1 27.0297 1.95075 7.97235
139 7 27.0337 0.243585 8.97177
135 2 28.566 1.14413 6.85306
140 7 28.5234 2.82378 8.97177
1413 7 0.219574 5.40397 8.97177
10 2 0.228247 3.7022 6.79676
12 1 1.71842 4.56587 7.98169
1427 7 3.19892 5.40397 8.97177
24 2 3.20865 3.70271 6.79823
26 1 4.69786 4.56687 7.98347
1441 7 6.17827 5.40397 8.97177
38 2 6.18956 3.70289 6.80112
40 1 7.67825 4.56715 7.98636
1455 7 9.15762 5.40397 8.97177
52 2 9.17118 3.70251 6.80483
54 1 10.6598 4.56707 7.98993
1469 7 12.137 5.40397 8.97177
66 2 12.1537 3.70182 6.80915
68 1 13.6427 4.56705 7.99395
1483 7 15.1163 5.40397 8.97177
80 2 15.137 3.70166 6.81399
82 1 16.6272 4.56876 7.99787
1497 7 18.0957 5.40397 8.97177
94 2 18.1201 3.70376 6.81853
96 1 19.6118 4.57153 7.9983
1511 7 21.075 5.40397 8.97177
108 2 21.095 3.70146 6.81875
110 1 22.5785 4.55695 8.0043
1525 7 24.0544 5.40397 8.97177
122 2 24.065 3.68999 6.80936
124 1 25.541 4.54801 7.98631
1539 7 27.0337 5.40397 8.97177
136 2 27.0255 3.67592 6.80256
138 1 28.5118 4.54356 7.98386
1411 1 0.231368 7.14912 7.97694
1410 2 0.230982 8.8699 6.78542
1409 2 1.71924 6.2856 6.79151
1414 7 1.70925 7.98416 8.97177
1425 1 3.20827 7.14982 7.97562
1424 2 3.20844 8.8698 6.78385
1423 2 4.69851 6.28544 6.79229
1428 7 4.6886 7.98416 8.97177
1439 1 6.18669 7.14922 7.97706
1438 2 6.18641 8.86821 6.7854
1437 2 7.67857 6.28454 6.79448
1442 7 7.66794 7.98416 8.97177
1453 1 9.1666 7.14817 7.97927
1452 2 9.1655 8.86588 6.7871
1451 2 10.66 6.28309 6.79736
1456 7 10.6473 7.98416 8.97177
1467 1 12.1485 7.14689 7.98206
1466 2 12.1475 8.86231 6.78996
1465 2 13.6432 6.28134 6.80076
1470 7 13.6266 7.98416 8.97177
1481 1 15.1334 7.14534 7.98497
1480 2 15.1321 8.85866 6.79262
1479 2 16.6291 6.2807 6.80336
1484 7 16.606 7.98416 8.97177
1495 1 18.1229 7.14566 7.98359
1494 2 18.1183 8.85281 6.79097
1493 2 19.6164 6.28385 6.80109
1498 7 19.5853 7.98416 8.97177
1508 2 21.0361 8.88279 6.83759
1509 1 21.1109 7.15057 7.96201
1507 2 22.5775 6.20964 6.84794
1512 7 22.5647 7.98416 8.97177
1523 1 24.0395 7.14306 7.9585
1522 2 24.1082 8.87741 6.83463
1521 2 25.5322 6.27018 6.79432
1526 7 25.544 7.98416 8.97177
1537 1 27.0204 7.13044 7.97563
1536 2 27.0231 8.84411 6.78475
1535 2 28.5097 6.26498 6.7948
1540 7 28.5234 7.98416 8.97177
2813 7 0.219574 10.5644 8.97177
2809 2 1.71773 11.4545 6.7735
1412 1 1.71926 9.73598 7.9671
2827 7 3.19892 10.5644 8.97177
2823 2 4.69515 11.4547 6.77222
1426 1 4.69493 9.73263 7.96741
2841 7 6.17827 10.5644 8.97177
2837 2 7.67198 11.452 6.77461
1440 1 7.67381 9.73029 7.96929
2855 7 9.15762 10.5644 8.97177
2851 2 10.6499 11.4452 6.78019
1454 1 10.6522 9.72874 7.97185
2869 7 12.137 10.5644 8.97177
2865 2 13.6349 11.4393 6.78377
1468 1 13.6358 9.72438 7.97496
2883 7 15.1163 10.5644 8.97177
2879 2 16.6191 11.4346 6.78615
1482 1 16.6195 9.72006 7.97694
2897 7 18.0957 10.5644 8.97177
2893 2 19.6026 11.4276 6.78275
1496 1 19.5988 9.71684 7.98175
2911 7 21.075 10.5644 8.97177
2907 2 22.5722 11.4146 6.78002
1510 1 22.5733 9.68821 7.95094
2925 7 24.0544 10.5644 8.97177
2921 2 25.5398 11.4242 6.7785
1524 1 25.5454 9.71016 7.97691
2939 7 27.0337 10.5644 8.97177
2935 2 28.5191 11.4302 6.77939
1538 1 28.5196 9.71159 7.97002
2811 1 0.223485 12.3217 7.95313
2810 2 0.215754 14.0322 6.75774
2812 1 1.70801 14.891 7.93846
2814 7 1.70925 13.1445 8.97177
2825 1 3.20855 12.3201 7.95329
2824 2 3.21052 14.0305 6.76036
2826 1 4.70766 14.8947 7.92562
2828 7 4.6886 13.1445 8.97177
2839 1 6.18071 12.309 7.9642
2838 2 6.18096 13.9634 6.81309
2840 1 7.64735 14.8928 7.93037
2842 7 7.66794 13.1445 8.97177
2853 1 9.15242 12.3132 7.9593
2852 2 9.14808 14.0265 6.76839
2854 1 10.6396 14.8831 7.95535
2856 7 10.6473 13.1445 8.97177
2867 1 12.1383 12.3051 7.96574
2866 2 12.1377 14.0193 6.77559
2868 1 13.6295 14.8794 7.96217
2870 7 13.6266 13.1445 8.97177
2881 1 15.1239 12.3002 7.96925
2880 2 15.1238 14.0161 6.77894
2882 1 16.6137 14.8769 7.96442
2884 7 16.606 13.1445 8.97177
2895 1 18.1071 12.2962 7.96993
2894 2 18.1061 14.0121 6.77979
2896 1 19.5952 14.8722 7.96394
2898 7 19.5853 13.1445 8.97177
2909 1 21.0873 12.2828 7.96555
2908 2 21.0849 14.0065 6.77844
2910 1 22.5732 14.8696 7.96177
2912 7 22.5647 13.1445 8.97177
2923 1 24.0579 12.2812 7.9632
2922 2 24.0593 14.0063 6.77637
2924 1 25.5508 14.873 7.95947
2926 7 25.544 13.1445 8.97177
2937 1 27.0345 12.2925 7.96425
2936 2 27.0353 14.012 6.7738
2938 1 28.5262 14.8769 7.95641
2940 7 28.5234 13.1445 8.97177
4211 1 0.204533 17.4506 7.93165
4213 7 0.219574 15.7247 8.97177
4209 2 1.70499 16.5868 6.74697
4225 1 3.19323 17.4501 7.94641
4227 7 3.19892 15.7247 8.97177
4223 2 4.63373 16.6197 6.80421
4239 1 6.17762 17.4251 7.92288
4241 7 6.17827 15.7247 8.97177
4237 2 7.72301 16.6207 6.80984
4253 1 9.16011 17.4526 7.95727
4255 7 9.15762 15.7247 8.97177
4251 2 10.6454 16.5912 6.7668
4267 1 12.143 17.4558 7.95642
4269 7 12.137 15.7247 8.97177
4265 2 13.6323 16.5957 6.77281
4281 1 15.1234 17.4565 7.95894
4283 7 15.1163 15.7247 8.97177
4279 2 16.6141 16.5955 6.77499
4295 1 18.1043 17.4556 7.9596
4297 7 18.0957 15.7247 8.97177
4293 2 19.5933 16.5935 6.77472
4309 1 21.0826 17.4551 7.95886
4311 7 21.075 15.7247 8.97177
4307 2 22.5728 16.5918 6.77348
4323 1 24.0659 17.4548 7.95656
4325 7 24.0544 15.7247 8.97177
4321 2 25.5533 16.595 6.77028
4337 1 27.0491 17.4618 7.95008
4339 7 27.0337 15.7247 8.97177
4335 2 28.5272 16.6017 6.76348
5613 7 0.219574 20.8851 8.97177
4210 2 0.205015 19.1486 6.73778
4212 1 1.7049 20.0163 7.93582
4214 7 1.70925 18.3049 8.97177
5627 7 3.19892 20.8851 8.97177
4224 2 3.20146 19.1546 6.75153
4226 1 4.69093 20.0093 7.94029
4228 7 4.6886 18.3049 8.97177
5641 7 6.17827 20.8851 8.97177
4238 2 6.18029 19.1466 6.75601
4240 1 7.66918 20.0123 7.94507
4242 7 7.66794 18.3049 8.97177
5655 7 9.15762 20.8851 8.97177
4252 2 9.15762 19.1613 6.76202
4254 1 10.6564 20.0285 7.95227
4256 7 10.6473 18.3049 8.97177
5669 7 12.137 20.8851 8.97177
4266 2 12.1465 19.1717 6.76855
4268 1 13.6435 20.0378 7.95198
4270 7 13.6266 18.3049 8.97177
5683 7 15.1163 20.8851 8.97177
4280 2 15.126 19.1788 6.76734
4282 1 16.6151 20.0325 7.96064
4284 7 16.606 18.3049 8.97177
5697 7 18.0957 20.8851 8.97177
4294 2 18.1029 19.1797 6.76795
4296 1 19.5859 20.0398 7.95286
4298 7 19.5853 18.3049 8.97177
5711 7 21.075 20.8851 8.97177
4308 2 21.0804 19.1751 6.77066
4310 1 22.5729 20.0336 7.95564
4312 7 22.5647 18.3049 8.97177
5725 7 24.0544 20.8851 8.97177
4322 2 24.0666 19.173 6.76926
4324 1 25.5647 20.0344 7.95023
4326 7 25.544 18.3049 8.97177
5739 7 27.0337 20.8851 8.97177
4336 2 27.0542 19.1798 6.76169
4338 1 28.5547 20.0454 7.92428
4340 7 28.5234 18.3049 8.97177
5611 1 0.218088 22.588 7.93196
5609 2 1.70923 21.7289 6.75022
5614 7 1.70925 23.4653 8.97177
5625 1 3.20069 22.5908 7.94042
5623 2 4.69292 21.7303 6.75679
5628 7 4.6886 23.4653 8.97177
5639 1 6.1827 22.5924 7.94577
5637 2 7.6737 21.7338 6.76194
5642 7 7.66794 23.4653 8.97177
5653 1 9.16665 22.5974 7.95069
5651 2 10.6601 21.7421 6.76574
5656 7 10.6473 23.4653 8.97177
5667 1 12.1579 22.6057 7.95038
5665 2 13.6501 21.7528 6.76407
5670 7 13.6266 23.4653 8.97177
5681 1 15.1489 22.6176 7.93016
5679 2 16.6153 21.6896 6.81285
5684 7 16.606 23.4653 8.97177
5695 1 18.0835 22.6196 7.93017
5693 2 19.581 21.7563 6.76505
5698 7 19.5853 23.4653 8.97177
5709 1 21.0737 22.6106 7.95255
5707 2 22.5709 21.7496 6.76953
5712 7 22.5647 23.4653 8.97177
5723 1 24.064 22.6062 7.95658
5721 2 25.5608 21.7453 6.7656
5726 7 25.544 23.4653 8.97177
5737 1 27.0486 22.6063 7.95831
5735 2 28.4829 21.7785 6.80733
5740 7 28.5234 23.4653 8.97177
7013 7 0.219574 26.0455 8.97177
5610 2 0.223084 24.309 6.74666
7009 2 1.71548 26.8939 6.75143
5612 1 1.71185 25.1711 7.93693
7027 7 3.19892 26.0455 8.97177
5624 2 3.20377 24.3117 6.75417
7023 2 4.69625 26.8954 6.75846
5626 1 4.693 25.1732 7.9439
7041 7 6.17827 26.0455 8.97177
5638 2 6.18547 24.314 6.76049
7037 2 7.67771 26.8963 6.76542
5640 1 7.67494 25.1748 7.9502
7055 7 9.15762 26.0455 8.97177
5652 2 9.16877 24.3163 6.76561
7051 2 10.6604 26.8951 6.77126
5654 1 10.6582 25.1756 7.95438
7069 7 12.137 26.0455 8.97177
5666 2 12.1558 24.3163 6.76528
7065 2 13.6459 26.8911 6.76902
5668 1 13.6397 25.1776 7.96031
5680 2 15.0769 24.3496 6.81301
7083 7 15.1163 26.0455 8.97177
7079 2 16.6181 26.8819 6.76652
5682 1 16.6178 25.1544 7.93063
7097 7 18.0957 26.0455 8.97177
5694 2 18.158 24.3524 6.81295
7093 2 19.5909 26.8946 6.76799
5696 1 19.5952 25.1816 7.9605
7111 7 21.075 26.0455 8.97177
5708 2 21.0786 24.3215 6.76735
7107 2 22.5771 26.9002 6.77496
5710 1 22.5756 25.1822 7.95917
7125 7 24.0544 26.0455 8.97177
5722 2 24.0662 24.3233 6.77365
7121 2 25.5592 26.9038 6.77657
5724 1 25.5596 25.182 7.96288
7139 7 27.0337 26.0455 8.97177
5736 2 27.0538 24.3164 6.77063
7135 2 28.5467 26.9028 6.76766
5738 1 28.549 25.1747 7.95122
7011 1 0.22314 27.7537 7.93441
7010 2 0.226454 29.4774 6.74981
7014 7 1.70925 28.6257 8.97177
7025 1 3.2037 27.7547 7.94158
7024 2 3.20712 29.4777 6.75673
7028 7 4.6886 28.6257 8.97177
7039 1 6.18462 27.7558 7.9488
7038 2 6.18809 29.4786 6.76397
7042 7 7.66794 28.6257 8.97177
7053 1 9.16614 27.7551 7.95643
7052 2 9.16887 29.4776 6.77319
7056 7 10.6473 28.6257 8.97177
7067 1 12.1498 27.7531 7.96064
7066 2 12.1504 29.4709 6.78159
7070 7 13.6266 28.6257 8.97177
7081 1 15.1322 27.7435 7.95572
7080 2 15.13 29.4709 6.77622
7084 7 16.606 28.6257 8.97177
7095 1 18.1047 27.7458 7.95408
7094 2 18.1058 29.4718 6.7726
7098 7 19.5853 28.6257 8.97177
7109 1 21.086 27.7585 7.95979
7108 2 21.0865 29.4766 6.77537
7112 7 22.5647 28.6257 8.97177
7123 1 24.0732 27.7618 7.96043
7122 2 24.0727 29.475 6.77834
7126 7 25.544 28.6257 8.97177
7137 1 27.0573 27.7615 7.95414
7136 2 27.0536 29.4782 6.76452
7140 7 28.5234 28.6257 8.97177
8401 7 0.219574 31.2059 2.03646
8415 7 3.19892 31.2059 2.03646
8429 7 6.17827 31.2059 2.03646
8443 7 9.15762 31.2059 2.03646
8457 7 12.137 31.2059 2.03646
8471 7 15.1163 31.2059 2.03646
8485 7 18.0957 31.2059 2.03646
8499 7 21.075 31.2059 2.03646
8513 7 24.0544 31.2059 2.03646
8527 7 27.0337 31.2059 2.03646
8402 7 1.70925 33.7861 2.03646
8416 7 4.6886 33.7861 2.03646
8430 7 7.66794 33.7861 2.03646
8444 7 10.6473 33.7861 2.03646
8458 7 13.6266 33.7861 2.03646
8472 7 16.606 33.7861 2.03646
8486 7 19.5853 33.7861 2.03646
8500 7 22.5647 33.7861 2.03646
8514 7 25.544 33.7861 2.03646
8528 7 28.5234 33.7861 2.03646
9801 7 0.219574 36.3663 2.03646
9802 7 1.70925 38.9465 2.03646
9815 7 3.19892 36.3663 2.03646
9816 7 4.6886 38.9465 2.03646
9829 7 6.17827 36.3663 2.03646
9830 7 7.66794 38.9465 2.03646
9843 7 9.15762 36.3663 2.03646
9844 7 10.6473 38.9465 2.03646
9857 7 12.137 36.3663 2.03646
9858 7 13.6266 38.9465 2.03646
9871 7 15.1163 36.3663 2.03646
9872 7 16.606 38.9465 2.03646
9885 7 18.0957 36.3663 2.03646
9886 7 19.5853 38.9465 2.03646
9899 7 21.075 36.3663 2.03646
9900 7 22.5647 38.9465 2.03646
9913 7 24.0544 36.3663 2.03646
9914 7 25.544 38.9465 2.03646
9927 7 27.0337 36.3663 2.03646
9928 7 28.5234 38.9465 2.03646
11201 7 0.219574 41.5267 2.03646
11215 7 3.19892 41.5267 2.03646
11229 7 6.17827 41.5267 2.03646
11243 7 9.15762 41.5267 2.03646
11257 7 12.137 41.5267 2.03646
11271 7 15.1163 41.5267 2.03646
11285 7 18.0957 41.5267 2.03646
11299 7 21.075 41.5267 2.03646
11313 7 24.0544 41.5267 2.03646
11327 7 27.0337 41.5267 2.03646
11202 7 1.70925 44.1068 2.03646
11216 7 4.6886 44.1068 2.03646
11230 7 7.66794 44.1068 2.03646
11244 7 10.6473 44.1068 2.03646
11258 7 13.6266 44.1068 2.03646
11272 7 16.606 44.1068 2.03646
11286 7 19.5853 44.1068 2.03646
11300 7 22.5647 44.1068 2.03646
11314 7 25.544 44.1068 2.03646
11328 7 28.5234 44.1068 2.03646
12601 7 0.219574 46.687 2.03646
12615 7 3.19892 46.687 2.03646
12629 7 6.17827 46.687 2.03646
12643 7 9.15762 46.687 2.03646
12657 7 12.137 46.687 2.03646
12671 7 15.1163 46.687 2.03646
12685 7 18.0957 46.687 2.03646
12699 7 21.075 46.687 2.03646
12713 7 24.0544 46.687 2.03646
12727 7 27.0337 46.687 2.03646
12602 7 1.70925 49.2672 2.03646
12604 1 0.229596 50.119 3.0561
12616 7 4.6886 49.2672 2.03646
12618 1 3.21076 50.1185 3.05977
12630 7 7.66794 49.2672 2.03646
12644 7 10.6473 49.2672 2.03646
12658 7 13.6266 49.2672 2.03646
12672 7 16.606 49.2672 2.03646
12686 7 19.5853 49.2672 2.03646
12700 7 22.5647 49.2672 2.03646
12714 7 25.544 49.2672 2.03646
12728 7 28.5234 49.2672 2.03646
14001 7 0.219574 51.8474 2.03646
14003 1 1.72064 52.7066 3.04182
14015 7 3.19892 51.8474 2.03646
14017 1 4.70361 52.7007 3.04228
14029 7 6.17827 51.8474 2.03646
14031 1 7.6885 52.7024 3.05679
14043 7 9.15762 51.8474 2.03646
14057 7 12.137 51.8474 2.03646
14071 7 15.1163 51.8474 2.03646
14085 7 18.0957 51.8474 2.03646
14099 7 21.075 51.8474 2.03646
14113 7 24.0544 51.8474 2.03646
14127 7 27.0337 51.8474 2.03646
15401 7 0.219574 57.0078 2.03646
14002 7 1.70925 54.4276 2.03646
14004 1 0.231666 55.2899 3.02853
15415 7 3.19892 57.0078 2.03646
14016 7 4.6886 54.4276 2.03646
14018 1 3.21056 55.289 3.03313
15429 7 6.17827 57.0078 2.03646
14030 7 7.66794 54.4276 2.03646
14032 1 6.19829 55.2883 3.03695
15443 7 9.15762 57.0078 2.03646
14044 7 10.6473 54.4276 2.03646
14046 1 9.18056 55.2876 3.05662
15457 7 12.137 57.0078 2.03646
14058 7 13.6266 54.4276 2.03646
15471 7 15.1163 57.0078 2.03646
14072 7 16.606 54.4276 2.03646
15485 7 18.0957 57.0078 2.03646
14086 7 19.5853 54.4276 2.03646
15499 7 21.075 57.0078 2.03646
14100 7 22.5647 54.4276 2.03646
15513 7 24.0544 57.0078 2.03646
14114 7 25.544 54.4276 2.03646
15527 7 27.0337 57.0078 2.03646
14128 7 28.5234 54.4276 2.03646
15402 7 1.70925 59.588 2.03646
15403 1 1.72144 57.8701 3.02118
15416 7 4.6886 59.588 2.03646
15417 1 4.70248 57.8698 3.02963
15430 7 7.66794 59.588 2.03646
15431 1 7.68855 57.8711 3.04412
15444 7 10.6473 59.588 2.03646
15445 1 10.6711 57.8709 3.06129
15458 7 13.6266 59.588 2.03646
15472 7 16.606 59.588 2.03646
15486 7 19.5853 59.588 2.03646
15500 7 22.5647 59.588 2.03646
15514 7 25.544 59.588 2.03646
15528 7 28.5234 59.588 2.03646
8405 2 0.233114 32.925 4.30125
8407 1 0.229855 31.201 5.5253
8403 1 1.72636 32.0653 3.1174
7006 2 1.72309 30.3412 4.30135
8419 2 3.21344 32.9245 4.30759
8421 1 3.21068 31.2009 5.53206
8417 1 4.70848 32.0649 3.1237
7020 2 4.70435 30.3419 4.30808
8433 2 6.19692 32.9242 4.31407
8435 1 6.19231 31.2019 5.5385
8431 1 7.6991 32.0701 3.13194
7034 2 7.68669 30.3441 4.31573
8447 2 9.18387 32.9274 4.33114
8449 1 9.17317 31.2025 5.54967
8445 1 10.6897 32.0747 3.16436
7048 2 10.661 30.3396 4.32308
8461 2 12.1508 32.822 4.39999
8463 1 12.1505 31.1884 5.56539