ITEM: TIMESTEP
100000
ITEM: NUMBER OF ATOMS
81200
ITEM: BOX BOUNDS pp pp pp
1.8896028513366556e-01 2.9811053561089108e+02
1.7950297457402770e-01 2.9946820899960181e+02
0.0000000000000000e+00 4.9031656433928198e+01
ITEM: ATOMS id type x y z
1 7 0.226201 0.250357 2.03646
2 7 1.71581 2.83043 2.03646
15 7 3.20542 0.250357 2.03646
16 7 4.69502 2.83043 2.03646
29 7 6.18463 0.250357 2.03646
30 7 7.67424 2.83043 2.03646
43 7 9.16385 0.250357 2.03646
44 7 10.6535 2.83043 2.03646
57 7 12.1431 0.250357 2.03646
58 7 13.6327 2.83043 2.03646
71 7 15.1223 0.250357 2.03646
72 7 16.6119 2.83043 2.03646
85 7 18.1015 0.250357 2.03646
86 7 19.5911 2.83043 2.03646
99 7 21.0807 0.250357 2.03646
100 7 22.5703 2.83043 2.03646
113 7 24.0599 0.250357 2.03646
114 7 25.5495 2.83043 2.03646
127 7 27.0391 0.250357 2.03646
128 7 28.5288 2.83043 2.03646
1401 7 0.226201 5.41051 2.03646
1415 7 3.20542 5.41051 2.03646
1429 7 6.18463 5.41051 2.03646
1443 7 9.16385 5.41051 2.03646
1457 7 12.1431 5.41051 2.03646
1471 7 15.1223 5.41051 2.03646
1485 7 18.1015 5.41051 2.03646
1499 7 21.0807 5.41051 2.03646
1513 7 24.0599 5.41051 2.03646
1527 7 27.0391 5.41051 2.03646
1402 7 1.71581 7.99058 2.03646
1416 7 4.69502 7.99058 2.03646
1430 7 7.67424 7.99058 2.03646
1444 7 10.6535 7.99058 2.03646
1458 7 13.6327 7.99058 2.03646
1472 7 16.6119 7.99058 2.03646
1486 7 19.5911 7.99058 2.03646
1500 7 22.5703 7.99058 2.03646
1514 7 25.5495 7.99058 2.03646
1528 7 28.5288 7.99058 2.03646
2801 7 0.226201 10.5707 2.03646
2815 7 3.20542 10.5707 2.03646
2829 7 6.18463 10.5707 2.03646
2843 7 9.16385 10.5707 2.03646
2857 7 12.1431 10.5707 2.03646
2871 7 15.1223 10.5707 2.03646
2885 7 18.1015 10.5707 2.03646
2899 7 21.0807 10.5707 2.03646
2913 7 24.0599 10.5707 2.03646
2927 7 27.0391 10.5707 2.03646
2802 7 1.71581 13.1507 2.03646
2816 7 4.69502 13.1507 2.03646
2830 7 7.67424 13.1507 2.03646
2844 7 10.6535 13.1507 2.03646
2858 7 13.6327 13.1507 2.03646
2872 7 16.6119 13.1507 2.03646
2886 7 19.5911 13.1507 2.03646
2900 7 22.5703 13.1507 2.03646
2914 7 25.5495 13.1507 2.03646
2928 7 28.5288 13.1507 2.03646
4201 7 0.226201 15.7308 2.03646
4215 7 3.20542 15.7308 2.03646
4229 7 6.18463 15.7308 2.03646
4243 7 9.16385 15.7308 2.03646
4257 7 12.1431 15.7308 2.03646
4271 7 15.1223 15.7308 2.03646
4285 7 18.1015 15.7308 2.03646
4299 7 21.0807 15.7308 2.03646
4313 7 24.0599 15.7308 2.03646
4327 7 27.0391 15.7308 2.03646
5601 7 0.226201 20.891 2.03646
4202 7 1.71581 18.3109 2.03646
5615 7 3.20542 20.891 2.03646
4216 7 4.69502 18.3109 2.03646
5629 7 6.18463 20.891 2.03646
4230 7 7.67424 18.3109 2.03646
5643 7 9.16385 20.891 2.03646
4244 7 10.6535 18.3109 2.03646
5657 7 12.1431 20.891 2.03646
4258 7 13.6327 18.3109 2.03646
5671 7 15.1223 20.891 2.03646
4272 7 16.6119 18.3109 2.03646
5685 7 18.1015 20.891 2.03646
4286 7 19.5911 18.3109 2.03646
5699 7 21.0807 20.891 2.03646
4300 7 22.5703 18.3109 2.03646
5713 7 24.0599 20.891 2.03646
4314 7 25.5495 18.3109 2.03646
5727 7 27.0391 20.891 2.03646
4328 7 28.5288 18.3109 2.03646
5602 7 1.71581 23.471 2.03646
5616 7 4.69502 23.471 2.03646
5630 7 7.67424 23.471 2.03646
5644 7 10.6535 23.471 2.03646
5658 7 13.6327 23.471 2.03646
5672 7 16.6119 23.471 2.03646
5686 7 19.5911 23.471 2.03646
5700 7 22.5703 23.471 2.03646
5714 7 25.5495 23.471 2.03646
5728 7 28.5288 23.471 2.03646
7001 7 0.226201 26.0511 2.03646
7015 7 3.20542 26.0511 2.03646
7029 7 6.18463 26.0511 2.03646
7043 7 9.16385 26.0511 2.03646
7057 7 12.1431 26.0511 2.03646
7071 7 15.1223 26.0511 2.03646
7085 7 18.1015 26.0511 2.03646
7099 7 21.0807 26.0511 2.03646
7113 7 24.0599 26.0511 2.03646
7127 7 27.0391 26.0511 2.03646
7002 7 1.71581 28.6312 2.03646
7016 7 4.69502 28.6312 2.03646
7030 7 7.67424 28.6312 2.03646
7044 7 10.6535 28.6312 2.03646
7058 7 13.6327 28.6312 2.03646
7072 7 16.6119 28.6312 2.03646
7086 7 19.5911 28.6312 2.03646
7100 7 22.5703 28.6312 2.03646
7114 7 25.5495 28.6312 2.03646
7128 7 28.5288 28.6312 2.03646
5 2 0.2345 1.98544 4.41738
7 1 0.236034 0.267221 5.65079
3 1 1.72397 1.1191 3.23357
8 1 1.72656 2.85052 5.63851
19 2 3.21592 1.98458 4.41454
21 1 3.21721 0.268393 5.64925
17 1 4.70564 1.11817 3.23095
22 1 4.7079 2.85047 5.63518
33 2 6.19793 1.98409 4.41052
35 1 6.19932 0.268888 5.64629
31 1 7.68933 1.11811 3.22846
36 1 7.68918 2.85058 5.63013
47 2 9.18863 1.98788 4.41303
49 1 9.1823 0.268068 5.64182
45 1 10.6713 1.11603 3.22202
50 1 10.649 2.83596 5.60482
61 2 12.1637 1.97771 4.39438
63 1 12.1649 0.265063 5.63304
59 1 13.6574 1.11487 3.21991
64 1 13.6772 2.8341 5.60346
75 2 15.1391 1.98596 4.41023
77 1 15.1477 0.266643 5.63832
73 1 16.6408 1.11438 3.22607
78 1 16.6366 2.84858 5.6271
89 2 18.1289 1.98251 4.40497
91 1 18.1326 0.267946 5.64211
87 1 19.6236 1.1131 3.22529
92 1 19.6165 2.85205 5.62965
103 2 21.1007 1.98878 4.40885
105 1 21.1111 0.258058 5.65102
101 5 22.5798 1.10338 3.25095
106 1 22.5909 2.84227 5.62564
117 2 24.0685 1.97223 4.41433
119 1 24.0445 0.231616 5.63152
115 5 25.5691 1.14454 3.24009
120 1 25.5599 2.80344 5.61242
131 2 27.0267 2.05249 4.33042
133 1 27.0391 0.250357 5.50412
129 1 28.4897 1.10498 3.20808
134 1 28.4983 2.80898 5.59373
147 1 29.9677 0.266306 5.59323
1407 1 0.236077 5.43339 5.63023
4 1 0.231091 3.70272 3.22416
6 2 1.72439 4.56735 4.40457
1421 1 3.21641 5.43302 5.6253
18 1 3.21376 3.70097 3.22034
20 2 4.70558 4.5666 4.40017
1435 1 6.19657 5.43232 5.62013
32 1 6.19514 3.69981 3.21518
34 2 7.68607 4.56589 4.3931
1449 1 9.17531 5.43223 5.60894
46 1 9.17849 3.69748 3.20984
48 2 10.6665 4.56541 4.38183
1463 1 12.1601 5.45448 5.59056
60 1 12.1624 3.69613 3.20186
62 2 13.6567 4.56385 4.38156
1477 1 15.1461 5.42872 5.60876
74 1 15.1464 3.69557 3.20829
76 2 16.6378 4.56316 4.39282
1491 1 18.127 5.42839 5.62378
88 1 18.1292 3.70292 3.21124
90 2 19.6138 4.56039 4.40669
1505 1 21.1175 5.42517 5.64185
102 1 21.1018 3.70573 3.2176
104 2 22.5895 4.55779 4.40041
1519 1 24.0523 5.44075 5.60893
116 1 24.0652 3.68554 3.20671
118 2 25.539 4.5478 4.38451
1533 1 27.0264 5.41163 5.59117
130 1 27.0179 3.69136 3.17959
132 2 28.5124 4.54983 4.36824
1405 2 0.234074 7.15002 4.39615
1404 1 0.231296 8.86588 3.20164
1403 1 1.722 6.28397 3.21118
1408 1 1.72651 8.01712 5.61563
1419 2 3.21441 7.14971 4.39092
1418 1 3.21337 8.86549 3.19611
1417 1 4.70322 6.28333 3.20633
1422 1 4.70518 8.01604 5.61091
1433 2 6.19424 7.14913 4.38578
1432 1 6.19274 8.86714 3.193
1431 1 7.68367 6.28262 3.19915
1436 1 7.6841 8.0144 5.60668
1447 2 9.17473 7.14744 4.3797
1446 1 9.17344 8.86464 3.18957
1445 1 10.6689 6.27972 3.19612
1450 1 10.665 8.01075 5.60358
1461 2 12.1595 7.134 4.38643
1460 1 12.1585 8.85786 3.18995
1459 1 13.6536 6.2773 3.19618
1464 1 13.6505 8.00683 5.60369
1475 2 15.146 7.14155 4.37995
1474 1 15.145 8.8557 3.18995
1473 1 16.6441 6.2759 3.199
1478 1 16.6369 8.00416 5.60844
1489 2 18.1229 7.14165 4.39748
1488 1 18.1326 8.85053 3.20113
1487 1 19.579 6.25686 3.1999
1492 1 19.6211 8.01741 5.63541
1503 2 21.0807 7.13056 4.27785
1502 1 21.1136 8.88297 3.21429
1501 1 22.6147 6.27246 3.21575
1506 1 22.5703 7.99058 5.50412
1517 2 24.1208 7.09423 4.32867
1516 1 24.0359 8.8395 3.20673
1515 1 25.5356 6.26554 3.17803
1520 1 25.5085 7.99335 5.59132
1531 2 27.0223 7.13402 4.36645
1530 1 27.0161 8.84829 3.17674
1529 1 28.5112 6.27188 3.1765
1534 1 28.5135 7.99618 5.58323
2807 1 0.234558 10.6032 5.60354
2803 1 1.72225 11.4401 3.18325
1406 2 1.72412 9.73172 4.38011
2821 1 3.21665 10.6027 5.59793
2817 1 4.7048 11.4516 3.18399
1420 2 4.70405 9.73367 4.37651
2835 1 6.1919 10.6018 5.59787
2831 1 7.67976 11.4523 3.18491
1434 2 7.68153 9.73253 4.37438
2849 1 9.16822 10.5972 5.59646
2845 1 10.663 11.4406 3.18197
1448 2 10.6639 9.72621 4.3726
2863 1 12.153 10.5886 5.59624
2859 1 13.6472 11.438 3.18143
1462 2 13.6485 9.72181 4.37218
2877 1 15.1374 10.5841 5.59754
2873 1 16.6319 11.4337 3.18407
1476 2 16.6338 9.71799 4.37594
2891 1 18.1228 10.5792 5.60209
2887 1 19.6148 11.422 3.18872
1490 2 19.6143 9.7188 4.3901
2905 1 21.1101 10.5501 5.60424
2901 1 22.5679 11.4316 3.17423
1504 2 22.5747 9.78806 4.32636
2919 1 24.0435 10.5437 5.59071
2915 1 25.5346 11.4268 3.17619
1518 2 25.5322 9.70641 4.36637
2933 1 27.0295 10.5732 5.58262
2929 1 28.5129 11.4341 3.1637
1532 2 28.514 9.71448 4.35339
2805 2 0.22968 12.3117 4.36939
2804 1 0.233061 14.0137 3.16092
2806 2 1.71946 14.8835 4.34918
2808 1 1.72224 13.1797 5.57932
2819 2 3.2165 12.3114 4.3645
2818 1 3.21074 14.0141 3.15809
2820 2 4.6441 14.8501 4.30183
2822 1 4.71921 13.207 5.58125
2833 2 6.19083 12.3214 4.36716
2832 1 6.19194 14.0421 3.19363
2834 2 7.73128 14.8504 4.31123
2836 1 7.65856 13.2039 5.58593
2847 2 9.16538 12.3093 4.3683
2846 1 9.17092 14.0183 3.16944
2848 2 10.6532 14.8834 4.36209
2850 1 10.6531 13.1711 5.58762
2861 2 12.1518 12.3039 4.36504
2860 1 12.1519 14.0204 3.17533
2862 2 13.6399 14.8834 4.35881
2864 1 13.6406 13.1658 5.58946
2875 2 15.1359 12.3004 4.36579
2874 1 15.1338 14.0194 3.17534
2876 2 16.6223 14.8813 4.36037
2878 1 16.6238 13.1621 5.59098
2889 2 18.1183 12.295 4.36846
2888 1 18.1145 14.0148 3.17746
2890 2 19.6002 14.8786 4.36237
2892 1 19.6047 13.1555 5.59257
2903 2 21.0896 12.2905 4.37237
2902 1 21.0863 14.0152 3.17774
2904 2 22.5756 14.8765 4.36003
2906 1 22.5778 13.1518 5.5884
2917 2 24.0596 12.2889 4.3648
2916 1 24.0595 14.014 3.1727
2918 2 25.5505 14.8778 4.35417
2920 1 25.549 13.1533 5.58231
2931 2 27.0309 12.2943 4.35337
2930 1 27.0316 14.0174 3.16457
2932 2 28.5252 14.8842 4.34469
2934 1 28.5261 13.1609 5.57322
4205 2 0.2208 17.4489 4.34614
4207 1 0.193571 15.7445 5.56191
4203 1 1.71956 16.5826 3.15648
4219 2 3.21403 17.4394 4.32999
4221 1 3.23774 15.7414 5.55915
4217 1 4.71922 16.5752 3.17688
4233 2 6.18042 17.5076 4.3055
4235 1 6.18463 15.7308 5.50412
4231 1 7.65768 16.582 3.18965
4247 2 9.14835 17.4388 4.36257
4249 1 9.12782 15.7417 5.58104
4245 1 10.6492 16.593 3.17565
4261 2 12.1497 17.453 4.36382
4263 1 12.1427 15.745 5.58416
4259 1 13.6369 16.607 3.17064
4275 2 15.1304 17.4654 4.35819
4277 1 15.1298 15.7446 5.58441
4273 1 16.6207 16.6032 3.17235
4289 2 18.1085 17.4658 4.35785
4291 1 18.1105 15.7431 5.58616
4287 1 19.5978 16.6009 3.17259
4303 2 21.087 17.4611 4.35717
4305 1 21.0889 15.7408 5.58625
4301 1 22.5745 16.5971 3.17002
4317 2 24.0663 17.4595 4.35283
4319 1 24.0672 15.7398 5.58199
4315 1 25.5498 16.5975 3.16467
4331 2 27.046 17.4643 4.34838
4333 1 27.0454 15.7462 5.57398
4329 1 28.5245 16.6099 3.15869
5607 1 0.213673 20.8715 5.54546
4204 1 0.215865 19.1488 3.14998
4206 2 1.70882 20.0157 4.32161
4208 1 1.68071 18.2911 5.53609
5621 1 3.20655 20.8998 5.53658
4218 1 3.21141 19.1521 3.14333
4220 2 4.7005 20.0178 4.32783
4222 1 4.74112 18.2658 5.52966
5635 1 6.19043 20.8794 5.55546
4232 1 6.19527 19.1607 3.14583
4234 2 7.67109 20.0179 4.35059
4236 1 7.65338 18.276 5.57542
4246 5 9.12281 19.1354 3.16082
5649 1 9.14555 20.8949 5.59257
4248 6 10.6535 20.0309 4.27785
4250 1 10.65 18.2899 5.60106
5663 1 12.1827 20.9124 5.60051
4260 5 12.1837 19.1542 3.16771
4262 2 13.655 20.0397 4.36608
4264 1 13.644 18.3253 5.588
5677 1 15.1518 20.9316 5.58059
4274 1 15.1264 19.186 3.17291
4276 2 16.6196 20.0535 4.35904
4278 1 16.6202 18.33 5.58333
5691 1 18.0898 20.9352 5.57909
4288 1 18.1056 19.1898 3.17307
4290 2 19.5929 20.0445 4.35777
4292 1 19.5958 18.3285 5.58223
5705 1 21.0837 20.9039 5.57705
4302 1 21.086 19.1787 3.1685
4304 2 22.5777 20.0397 4.3521
4306 1 22.5789 18.3221 5.58022
5719 1 24.0751 20.8992 5.57483
4316 1 24.0643 19.1782 3.16437
4318 2 25.5618 20.0413 4.34963
4320 1 25.5634 18.3243 5.57272
5733 1 27.0877 20.8988 5.56623
4330 1 27.0384 19.1789 3.15198
4332 2 28.4786 20.0098 4.2928
4334 1 28.5519 18.3562 5.56355
5605 2 0.225516 22.5936 4.32173
5603 1 1.7176 21.7312 3.14085
5608 1 1.71812 23.4565 5.54996
5619 2 3.20934 22.5856 4.33571
5617 1 4.70032 21.7367 3.14595
5622 1 4.70119 23.46 5.55624
5633 2 6.19351 22.6013 4.33251
5631 1 7.68759 21.7414 3.15501
5636 1 7.68362 23.4645 5.5648
5647 2 9.1728 22.6113 4.3513
5645 1 10.6669 21.7859 3.1616
5650 1 10.6702 23.4705 5.57868
5661 2 12.165 22.6196 4.3617
5659 1 13.6435 21.7502 3.16569
5664 1 13.6833 23.4719 5.57633
5675 2 15.0814 22.5826 4.30901
5673 1 16.6208 21.7787 3.19258
5678 1 16.6119 23.471 5.50412
5689 2 18.1624 22.5867 4.30801
5687 1 19.599 21.7564 3.1623
5692 1 19.562 23.4761 5.57542
5703 2 21.084 22.6196 4.35432
5701 1 22.5791 21.7575 3.16511
5706 1 22.5758 23.4767 5.57579
5717 2 24.0716 22.6162 4.34894
5715 1 25.5637 21.7543 3.16279
5720 1 25.5659 23.4708 5.57328
5731 2 27.0582 22.6097 4.34526
5729 1 28.5485 21.7464 3.17419
5734 1 28.5595 23.4408 5.56081
7007 1 0.233075 26.0413 5.54368
5604 1 0.232153 24.3157 3.13376
7003 1 1.72731 26.9007 3.13218
5606 2 1.72305 25.1783 4.321
7021 1 3.21295 26.0421 5.54896
5618 1 3.21387 24.3149 3.14132
7017 1 4.70905 26.9023 3.13883
5620 2 4.70445 25.1808 4.32734
7035 1 6.19412 26.0444 5.55677
5632 1 6.19789 24.3208 3.14615
7031 1 7.69234 26.9035 3.14772
5634 2 7.68798 25.1833 4.33527
7049 1 9.1763 26.0458 5.56543
5646 1 9.18545 24.3179 3.15489
7045 1 10.6738 26.9026 3.1557
5648 2 10.6717 25.1836 4.34515
7063 1 12.163 26.0431 5.57136
5660 1 12.1634 24.3171 3.16455
7059 1 13.6553 26.8962 3.16167
5662 2 13.6587 25.1787 4.35077
7077 1 15.1557 26.0125 5.5709
5674 1 15.1558 24.3144 3.18809
7073 1 16.6248 26.9061 3.15475
5676 2 16.6246 25.2479 4.30327
7091 1 18.0934 26.0161 5.5717
5688 1 18.0908 24.3182 3.18766
7087 1 19.5979 26.9013 3.16452
5690 2 19.59 25.1848 4.35277
7105 1 21.0874 26.0494 5.57529
5702 1 21.0821 24.3316 3.16711
7101 1 22.5922 26.9159 3.16492
5704 2 22.5804 25.1946 4.34981
7119 1 24.0751 26.0543 5.57839
5716 1 24.0707 24.3373 3.16268
7115 1 25.5844 26.9246 3.18839
5718 2 25.56 25.1911 4.34727
7133 1 27.057 26.038 5.58225
5730 1 27.0499 24.3313 3.15851
7129 1 28.5049 26.9277 3.17847
5732 2 28.5383 25.1886 4.33949
7005 2 0.236308 27.7643 4.3146
7004 1 0.239321 29.4879 3.12655
7008 1 1.7249 28.6262 5.54176
7019 2 3.21692 27.764 4.31976
7018 1 3.22119 29.4867 3.13181
7022 1 4.70587 28.6269 5.54855
7033 2 6.19897 27.7657 4.3277
7032 1 6.20476 29.489 3.14008
7036 1 7.68705 28.6283 5.55805
7047 2 9.18019 27.7661 4.33663
7046 1 9.18542 29.4919 3.14976
7050 1 10.6671 28.6249 5.56705
7061 2 12.1617 27.7622 4.34258
7060 1 12.1614 29.4876 3.15567
7064 1 13.6505 28.6187 5.56942
7075 2 15.1368 27.759 4.34648
7074 1 15.1337 29.4895 3.15647
7078 1 16.6236 28.6198 5.56729
7089 2 18.113 27.7608 4.34784
7088 1 18.1141 29.4864 3.15709
7092 1 19.6001 28.6228 5.5715
7103 2 21.0941 27.767 4.34881
7102 1 21.099 29.4845 3.16155
7106 1 22.5866 28.6296 5.57966
7117 2 24.0835 27.776 4.36011
7116 1 24.0974 29.5019 3.19144
7120 1 25.5789 28.636 5.56377
7131 2 27.0516 27.6736 4.41903
7130 5 27.0391 29.4912 3.092
7134 1 28.5386 28.635 5.55287
11 1 0.239174 1.99823 8.05618
13 7 0.226201 0.250357 8.97177
9 2 1.7281 1.13366 6.87262
14 7 1.71581 2.83043 8.97177
25 1 3.22037 2.0001 8.05373
27 7 3.20542 0.250357 8.97177
23 2 4.70973 1.13475 6.87027
28 7 4.69502 2.83043 8.97177
39 1 6.20216 2.00167 8.05027
41 7 6.18463 0.250357 8.97177
37 2 7.69149 1.13494 6.86649
42 7 7.67424 2.83043 8.97177
53 1 9.18396 2.0015 8.04316
55 7 9.16385 0.250357 8.97177
51 2 10.6704 1.12689 6.85513
56 7 10.6535 2.83043 8.97177
67 1 12.1645 1.9568 8.04707
69 7 12.1431 0.250357 8.97177
65 2 13.6586 1.1252 6.85433
70 7 13.6327 2.83043 8.97177
81 1 15.1434 1.99942 8.04113
83 7 15.1223 0.250357 8.97177
79 2 16.6374 1.13477 6.86316
84 7 16.6119 2.83043 8.97177
95 1 18.1254 2.00296 8.0468
97 7 18.1015 0.250357 8.97177
93 2 19.6165 1.13803 6.86502
98 7 19.5911 2.83043 8.97177
109 1 21.1056 1.99146 8.03997
111 7 21.0807 0.250357 8.97177
107 2 22.6013 1.11107 6.84053
112 7 22.5703 2.83043 8.97177
123 1 24.0696 1.97385 8.02515
125 7 24.0599 0.250357 8.97177
121 2 25.4833 1.14779 6.87436
126 7 25.5495 2.83043 8.97177
137 1 27.0372 1.95964 7.98596
139 7 27.0391 0.250357 8.97177
135 2 28.5726 1.15574 6.86461
140 7 28.5288 2.83043 8.97177
1413 7 0.226201 5.41051 8.97177
10 2 0.23811 3.71583 6.8633
12 1 1.73026 4.58149 8.0439
1427 7 3.20542 5.41051 8.97177
24 2 3.21888 3.71632 6.8595
26 1 4.71098 4.58257 8.03975
1441 7 6.18463 5.41051 8.97177
38 2 6.2001 3.71696 6.8556
40 1 7.69604 4.58347 8.035
1455 7 9.16385 5.41051 8.97177
52 2 9.17202 3.71665 6.84288
54 1 10.6332 4.60161 8.03368
1469 7 12.1431 5.41051 8.97177
66 2 12.1431 3.69046 6.73038
68 1 13.687 4.59828 8.03265
1483 7 15.1223 5.41051 8.97177
80 2 15.152 3.71414 6.84206
82 1 16.6272 4.58038 8.0354
1497 7 18.1015 5.41051 8.97177
94 2 18.1249 3.71588 6.8538
96 1 19.6192 4.58145 8.03322
1511 7 21.0807 5.41051 8.97177
108 2 21.1019 3.72312 6.83989
110 1 22.5878 4.56497 8.03222
1525 7 24.0599 5.41051 8.97177
122 2 24.0736 3.70026 6.83165
124 1 25.5516 4.55634 8.00818
1539 7 27.0391 5.41051 8.97177
136 2 27.0328 3.68742 6.81952
138 1 28.5209 4.55396 8.00005
1411 1 0.242394 7.16525 8.03612
1410 2 0.239997 8.88414 6.84055
1409 2 1.72834 6.2991 6.85024
1414 7 1.71581 7.99058 8.97177
1425 1 3.21866 7.16552 8.03017
1424 2 3.21625 8.88361 6.83448
1423 2 4.70741 6.29883 6.84537
1428 7 4.69502 7.99058 8.97177
1439 1 6.19732 7.16379 8.02506
1438 2 6.19385 8.88108 6.83115
1437 2 7.68728 6.29728 6.8389
1442 7 7.67424 7.99058 8.97177
1453 1 9.17795 7.15545 8.02152
1452 2 9.17264 8.877 6.82893
1451 2 10.6628 6.30155 6.82936
1456 7 10.6535 7.99058 8.97177
1467 1 12.1571 7.15683 8.01665
1466 2 12.1548 8.87319 6.82772
1465 2 13.6552 6.29866 6.82944
1470 7 13.6327 7.99058 8.97177
1481 1 15.1382 7.14984 8.02259
1480 2 15.1391 8.86862 6.8301
1479 2 16.6341 6.29147 6.84074
1484 7 16.6119 7.99058 8.97177
1495 1 18.1293 7.15648 8.02319
1494 2 18.1333 8.85958 6.8228
1493 2 19.6186 6.29317 6.848
1498 7 19.5911 7.99058 8.97177
1508 2 21.0355 8.8983 6.88208
1509 1 21.1184 7.1604 8.00371
1507 2 22.5845 6.21337 6.88514
1512 7 22.5703 7.99058 8.97177
1523 1 24.0502 7.15191 7.98756
1522 2 24.1153 8.88736 6.86289
1521 2 25.5414 6.28046 6.81849
1526 7 25.5495 7.99058 8.97177
1537 1 27.0312 7.13994 7.99709
1536 2 27.0318 8.85463 6.80742
1535 2 28.5179 6.27665 6.81297
1540 7 28.5288 7.99058 8.97177
2813 7 0.226201 10.5707 8.97177
2809 2 1.72562 11.4694 6.81884
1412 1 1.72919 9.75312 8.01772
2827 7 3.20542 10.5707 8.97177
2823 2 4.70159 11.4688 6.81391
1426 1 4.70349 9.7485 8.01366
2841 7 6.18463 10.5707 8.97177
2837 2 7.67811 11.4644 6.81551
1440 1 7.68207 9.74328 8.01214
2855 7 9.16385 10.5707 8.97177
2851 2 10.6566 11.4567 6.81952
1454 1 10.66 9.73982 8.0112
2869 7 12.1431 10.5707 8.97177
2865 2 13.6416 11.4502 6.82087
1468 1 13.6435 9.73446 8.01193
2883 7 15.1223 10.5707 8.97177
2879 2 16.6256 11.4455 6.82305
1482 1 16.627 9.72934 8.01288
2897 7 18.1015 10.5707 8.97177
2893 2 19.6088 11.4415 6.82191
1496 1 19.6047 9.72924 8.02174
2911 7 21.0807 10.5707 8.97177
2907 2 22.5801 11.4273 6.81622
1510 1 22.5826 9.69959 7.98643
2925 7 24.0599 10.5707 8.97177
2921 2 25.5483 11.4346 6.80689
1524 1 25.5557 9.71911 8.00273
2939 7 27.0391 10.5707 8.97177
2935 2 28.5277 11.4407 6.80205
1538 1 28.5302 9.72157 7.99117
2811 1 0.235048 12.3405 7.99903
2810 2 0.22483 14.0474 6.79932
2812 1 1.72206 14.9142 7.97415
2814 7 1.71581 13.1507 8.97177
2825 1 3.2166 12.3379 7.99361
2824 2 3.21687 14.0458 6.79402
2826 1 4.70804 14.9155 7.95738
2828 7 4.69502 13.1507 8.97177
2839 1 6.18601 12.325 8.00344
2838 2 6.18564 13.9767 6.84938
2840 1 7.65048 14.9055 7.96744
2842 7 7.67424 13.1507 8.97177
2853 1 9.15881 12.3263 7.9987
2852 2 9.15352 14.0383 6.80664
2854 1 10.6448 14.8975 7.99149
2856 7 10.6535 13.1507 8.97177
2867 1 12.1451 12.3171 8.00382
2866 2 12.1437 14.0312 6.81315
2868 1 13.6361 14.8908 7.99848
2870 7 13.6327 13.1507 8.97177
2881 1 15.1307 12.3109 8.0054
2880 2 15.1302 14.0271 6.81437
2882 1 16.6198 14.8884 7.99961
2884 7 16.6119 13.1507 8.97177
2895 1 18.1131 12.3087 8.00727
2894 2 18.1122 14.0241 6.81599
2896 1 19.6018 14.8846 8.00069
2898 7 19.5911 13.1507 8.97177
2909 1 21.0954 12.2962 8.00388
2908 2 21.092 14.0187 6.8156
2910 1 22.5821 14.8812 7.99794
2912 7 22.5703 13.1507 8.97177
2923 1 24.0682 12.2916 7.99613
2922 2 24.0677 14.0171 6.81072
2924 1 25.5615 14.8828 7.99176
2926 7 25.5495 13.1507 8.97177
2937 1 27.0453 12.3015 7.99079
2936 2 27.0442 14.0217 6.80262
2938 1 28.5374 14.8862 7.98264
2940 7 28.5288 13.1507 8.97177
4211 1 0.213255 17.4658 7.96225
4213 7 0.226201 15.7308 8.97177
4209 2 1.70738 16.5951 6.76944
4225 1 3.19949 17.4332 7.97091
4227 7 3.20542 15.7308 8.97177
4223 2 4.64317 16.624 6.82144
4239 1 6.17685 17.4371 7.94947
4241 7 6.18463 15.7308 8.97177
4237 2 7.72599 16.6306 6.84604
4253 1 9.16212 17.4652 7.99396
4255 7 9.16385 15.7308 8.97177
4251 2 10.6495 16.6125 6.79721
4267 1 12.1464 17.4679 7.99402
4269 7 12.1431 15.7308 8.97177
4265 2 13.6386 16.6064 6.81068
4281 1 15.1299 17.4672 7.99669
4283 7 15.1223 15.7308 8.97177
4279 2 16.62 16.6067 6.81056
4295 1 18.1105 17.4673 7.99524
4297 7 18.1015 15.7308 8.97177
4293 2 19.5997 16.6051 6.81113
4309 1 21.09 17.4672 7.99519
4311 7 21.0807 15.7308 8.97177
4307 2 22.5805 16.6029 6.80963
4323 1 24.0755 17.4659 7.99064
4325 7 24.0599 15.7308 8.97177
4321 2 25.5621 16.6049 6.80259
4337 1 27.06 17.4719 7.97874
4339 7 27.0391 15.7308 8.97177
4335 2 28.5361 16.6112 6.78948
5613 7 0.226201 20.891 8.97177
4210 2 0.19996 19.1612 6.76115
4212 1 1.67041 20.0488 7.9691
4214 7 1.71581 18.3109 8.97177
5627 7 3.20542 20.891 8.97177
4224 2 3.20542 19.1709 6.73038
4226 1 4.73117 20.0398 7.9719
4228 7 4.69502 18.3109 8.97177
5641 7 6.18463 20.891 8.97177
4238 2 6.19075 19.1583 6.77781
4240 1 7.6652 20.0256 7.97723
4242 7 7.67424 18.3109 8.97177
5655 7 9.16385 20.891 8.97177
4252 2 9.15612 19.1704 6.80577
4254 1 10.6578 20.0409 7.99448
4256 7 10.6535 18.3109 8.97177
5669 7 12.1431 20.891 8.97177
4266 2 12.1535 19.1817 6.81457
4268 1 13.6476 20.0501 7.99066
4270 7 13.6327 18.3109 8.97177
5683 7 15.1223 20.891 8.97177
4280 2 15.1322 19.1893 6.80581
4282 1 16.6212 20.0444 7.99676
4284 7 16.6119 18.3109 8.97177
5697 7 18.1015 20.891 8.97177
4294 2 18.1089 19.1911 6.8034
4296 1 19.5925 20.0524 7.98766
4298 7 19.5911 18.3109 8.97177
5711 7 21.0807 20.891 8.97177
4308 2 21.0872 19.1866 6.80597
4310 1 22.5809 20.0457 7.98923
4312 7 22.5703 18.3109 8.97177
5725 7 24.0599 20.891 8.97177
4322 2 24.0744 19.1835 6.80209
4324 1 25.5743 20.0452 7.97966
4326 7 25.5495 18.3109 8.97177
5739 7 27.0391 20.891 8.97177
4336 2 27.0626 19.1894 6.78907
4338 1 28.5646 20.0553 7.94796
4340 7 28.5288 18.3109 8.97177
5611 1 0.226919 22.5945 7.96067
5609 2 1.70883 21.7451 6.77058
5614 7 1.71581 23.471 8.97177
5625 1 3.20633 22.6 7.96445
5623 2 4.70233 21.7461 6.77711
5628 7 4.69502 23.471 8.97177
5639 1 6.18618 22.5967 7.97245
5637 2 7.68577 21.7388 6.78377
5642 7 7.67424 23.471 8.97177
5653 1 9.1687 22.6091 7.98241
5651 2 10.6638 21.7569 6.80899
5656 7 10.6535 23.471 8.97177
5667 1 12.1618 22.619 7.98623
5665 2 13.6465 21.7596 6.79431
5670 7 13.6327 23.471 8.97177
5681 1 15.1527 22.6299 7.96286
5679 2 16.6203 21.7007 6.84778
5684 7 16.6119 23.471 8.97177
5695 1 18.0892 22.6328 7.9627
5693 2 19.5871 21.7682 6.79845
5698 7 19.5911 23.471 8.97177
5709 1 21.0807 22.6238 7.9845
5707 2 22.578 21.7611 6.80168
5712 7 22.5703 23.471 8.97177
5723 1 24.0725 22.6181 7.98607
5721 2 25.5685 21.7556 6.7934
5726 7 25.5495 23.471 8.97177
5737 1 27.0576 22.6163 7.98279
5735 2 28.4905 21.7879 6.82985
5740 7 28.5288 23.471 8.97177
7013 7 0.226201 26.0511 8.97177
5610 2 0.229506 24.3187 6.77304
7009 2 1.72156 26.904 6.77097
5612 1 1.71869 25.1822 7.96022
7027 7 3.20542 26.0511 8.97177
5624 2 3.20926 24.3211 6.77858
7023 2 4.70165 26.9053 6.77769
5626 1 4.69836 25.1839 7.96688
7041 7 6.18463 26.0511 8.97177
5638 2 6.19026 24.3228 6.7865
7037 2 7.68247 26.9072 6.78663
5640 1 7.67798 25.187 7.97576
7055 7 9.16385 26.0511 8.97177
5652 2 9.17265 24.3285 6.79566
7051 2 10.6654 26.9069 6.79428
5654 1 10.6621 25.191 7.9836
7069 7 12.1431 26.0511 8.97177
5666 2 12.1605 24.3294 6.79742
7065 2 13.6515 26.9026 6.79214
5668 1 13.6451 25.1921 7.98846
5680 2 15.0822 24.3608 6.84301
7083 7 15.1223 26.0511 8.97177
7079 2 16.6238 26.8938 6.79087
5682 1 16.6234 25.1677 7.95821
7097 7 18.1015 26.0511 8.97177
5694 2 18.1643 24.3645 6.84258
7093 2 19.5967 26.9069 6.79481
5696 1 19.6013 25.1952 7.9894
7111 7 21.0807 26.0511 8.97177
5708 2 21.0854 24.3338 6.79752
7107 2 22.5837 26.9125 6.8035
5710 1 22.5829 25.1952 7.98818
7125 7 24.0599 26.0511 8.97177
5722 2 24.0735 24.3347 6.80203
7121 2 25.5666 26.9149 6.8037
5724 1 25.5678 25.193 7.98927
7139 7 27.0391 26.0511 8.97177
5736 2 27.0612 24.3264 6.79492
7135 2 28.5546 26.912 6.79124
5738 1 28.558 25.1835 7.97355
7011 1 0.230708 27.7664 7.95345
7010 2 0.232916 29.4885 6.76535
7014 7 1.71581 28.6312 8.97177
7025 1 3.20952 27.7666 7.95869
7024 2 3.21273 29.4879 6.77061
7028 7 4.69502 28.6312 8.97177
7039 1 6.18936 27.7683 7.96683
7038 2 6.1934 29.4892 6.77879
7042 7 7.67424 28.6312 8.97177
7053 1 9.1705 27.7686 7.97672
7052 2 9.17413 29.4888 6.79027
7056 7 10.6535 28.6312 8.97177
7067 1 12.1548 27.7668 7.98168
7066 2 12.1558 29.482 6.7999
7070 7 13.6327 28.6312 8.97177
7081 1 15.1374 27.7569 7.97755
7080 2 15.1354 29.4823 6.79551
7084 7 16.6119 28.6312 8.97177
7095 1 18.1094 27.7594 7.97832
7094 2 18.1111 29.4839 6.79448
7098 7 19.5911 28.6312 8.97177
7109 1 21.0911 27.7718 7.98711
7108 2 21.0922 29.4889 6.80193
7112 7 22.5703 28.6312 8.97177
7123 1 24.0807 27.7742 7.98877
7122 2 24.0798 29.4875 6.80778
7126 7 25.5495 28.6312 8.97177
7137 1 27.066 27.7715 7.98037
7136 2 27.0618 29.4891 6.79248
7140 7 28.5288 28.6312 8.97177
8401 7 0.226201 31.2113 2.03646
8415 7 3.20542 31.2113 2.03646
8429 7 6.18463 31.2113 2.03646
8443 7 9.16385 31.2113 2.03646
8457 7 12.1431 31.2113 2.03646
8471 7 15.1223 31.2113 2.03646
8485 7 18.1015 31.2113 2.03646
8499 7 21.0807 31.2113 2.03646
8513 7 24.0599 31.2113 2.03646
8527 7 27.0391 31.2113 2.03646
8402 7 1.71581 33.7913 2.03646
8416 7 4.69502 33.7913 2.03646
8430 7 7.67424 33.7913 2.03646
8444 7 10.6535 33.7913 2.03646
8458 7 13.6327 33.7913 2.03646
8472 7 16.6119 33.7913 2.03646
8486 7 19.5911 33.7913 2.03646
8500 7 22.5703 33.7913 2.03646
8514 7 25.5495 33.7913 2.03646
8528 7 28.5288 33.7913 2.03646
9801 7 0.226201 36.3714 2.03646
9802 7 1.71581 38.9515 2.03646
9815 7 3.20542 36.3714 2.03646
9816 7 4.69502 38.9515 2.03646
9829 7 6.18463 36.3714 2.03646
9830 7 7.67424 38.9515 2.03646
9843 7 9.16385 36.3714 2.03646
9844 7 10.6535 38.9515 2.03646
9857 7 12.1431 36.3714 2.03646
9858 7 13.6327 38.9515 2.03646
9871 7 15.1223 36.3714 2.03646
9872 7 16.6119 38.9515 2.03646
9885 7 18.1015 36.3714 2.03646
9886 7 19.5911 38.9515 2.03646
9899 7 21.0807 36.3714 2.03646
9900 7 22.5703 38.9515 2.03646
9913 7 24.0599 36.3714 2.03646
9914 7 25.5495 38.9515 2.03646
9927 7 27.0391 36.3714 2.03646
9928 7 28.5288 38.9515 2.03646
11201 7 0.226201 41.5316 2.03646
11215 7 3.20542 41.5316 2.03646
11229 7 6.18463 41.5316 2.03646
11243 7 9.16385 41.5316 2.03646
11257 7 12.1431 41.5316 2.03646
11271 7 15.1223 41.5316 2.03646
11285 7 18.1015 41.5316 2.03646
11299 7 21.0807 41.5316 2.03646
11313 7 24.0599 41.5316 2.03646
11327 7 27.0391 41.5316 2.03646
11202 7 1.71581 44.1116 2.03646
11216 7 4.69502 44.1116 2.03646
11230 7 7.67424 44.1116 2.03646
11244 7 10.6535 44.1116 2.03646
11258 7 13.6327 44.1116 2.03646
11272 7 16.6119 44.1116 2.03646
11286 7 19.5911 44.1116 2.03646
11300 7 22.5703 44.1116 2.03646
11314 7 25.5495 44.1116 2.03646
11328 7 28.5288 44.1116 2.03646
12601 7 0.226201 46.6917 2.03646
12615 7 3.20542 46.6917 2.03646
12629 7 6.18463 46.6917 2.03646
12643 7 9.16385 46.6917 2.03646
12657 7 12.1431 46.6917 2.03646
12671 7 15.1223 46.6917 2.03646
12685 7 18.1015 46.6917 2.03646
12699 7 21.0807 46.6917 2.03646
12713 7 24.0599 46.6917 2.03646
12727 7 27.0391 46.6917 2.03646
12602 7 1.71581 49.2718 2.03646
12604 1 0.235897 50.1306 3.05728
12616 7 4.69502 49.2718 2.03646
12618 1 3.21574 50.1292 3.06301
12630 7 7.67424 49.2718 2.03646
12644 7 10.6535 49.2718 2.03646
12658 7 13.6327 49.2718 2.03646
12672 7 16.6119 49.2718 2.03646
12686 7 19.5911 49.2718 2.03646
12700 7 22.5703 49.2718 2.03646
12714 7 25.5495 49.2718 2.03646
12728 7 28.5288 49.2718 2.03646
14001 7 0.226201 51.8519 2.03646
14003 1 1.72667 52.7186 3.04447
14015 7 3.20542 51.8519 2.03646
14017 1 4.70889 52.7119 3.04641
14029 7 6.18463 51.8519 2.03646
14031 1 7.69304 52.7128 3.06175
14043 7 9.16385 51.8519 2.03646
14057 7 12.1431 51.8519 2.03646
14071 7 15.1223 51.8519 2.03646
14085 7 18.1015 51.8519 2.03646
14099 7 21.0807 51.8519 2.03646
14113 7 24.0599 51.8519 2.03646
14127 7 27.0391 51.8519 2.03646
15401 7 0.226201 57.012 2.03646
14002 7 1.71581 54.4319 2.03646
14004 1 0.23855 55.3032 3.03152
15415 7 3.20542 57.012 2.03646
14016 7 4.69502 54.4319 2.03646
14018 1 3.21661 55.301 3.03797
15429 7 6.18463 57.012 2.03646
14030 7 7.67424 54.4319 2.03646
14032 1 6.20345 55.2996 3.04344
15443 7 9.16385 57.012 2.03646
14044 7 10.6535 54.4319 2.03646
14046 1 9.18477 55.2983 3.06263
15457 7 12.1431 57.012 2.03646
14058 7 13.6327 54.4319 2.03646
15471 7 15.1223 57.012 2.03646
14072 7 16.6119 54.4319 2.03646
15485 7 18.1015 57.012 2.03646
14086 7 19.5911 54.4319 2.03646
15499 7 21.0807 57.012 2.03646
14100 7 22.5703 54.4319 2.03646
15513 7 24.0599 57.012 2.03646
14114 7 25.5495 54.4319 2.03646
15527 7 27.0391 57.012 2.03646
14128 7 28.5288 54.4319 2.03646
15402 7 1.71581 59.5921 2.03646
15403 1 1.72734 57.8836 3.02859
15416 7 4.69502 59.5921 2.03646
15417 1 4.70701 57.8824 3.03838
15430 7 7.67424 59.5921 2.03646
15431 1 7.69198 57.8832 3.05327
15444 7 10.6535 59.5921 2.03646
15458 7 13.6327 59.5921 2.03646
15472 7 16.6119 59.5921 2.03646
15486 7 19.5911 59.5921 2.03646
15500 7 22.5703 59.5921 2.03646
15514 7 25.5495 59.5921 2.03646
15528 7 28.5288 59.5921 2.03646
8405 2 0.237564 32.9348 4.3131
8407 1 0.23528 31.2113 5.53836
8403 1 1.73092 32.0728 3.12918
7006 2 1.72805 30.349 4.31442
8419 2 3.21853 32.9331 4.3185
8421 1 3.21616 31.21 5.54366
8417 1 4.71456 32.0718 3.13558
7020 2 4.71041 30.3491 4.32105
8433 2 6.20282 32.9327 4.32582
8435 1 6.19804 31.2111 5.55118
8431 1 7.70645 32.0775 3.14544
7034 2 7.69351 30.3518 4.33066
8447 2 9.19048 32.9365 4.34537
8449 1 9.17923 31.2123 5.56492
8445 1 10.6973 32.0827 3.18042
7048 2 10.6679 30.3478 4.34011
8461 2 12.1578 32.831 4.4163