ITEM: TIMESTEP
0
ITEM: NUMBER OF ATOMS
81200
ITEM: BOX BOUNDS pp pp pp
-1.1085748354745291e-01 2.9841035337956163e+02
-1.4037254251551556e-01 2.9978808451668573e+02
0.0000000000000000e+00 4.9031656433928198e+01
ITEM: ATOMS id type x y z
2 3 1.39791 2.52568 2.15411
15 7 2.91167 -0.0693671 2.03646
16 3 4.38386 2.55905 2.11718
29 7 5.89688 -0.0693671 2.03646
30 3 7.38361 2.52017 2.12253
43 3 8.87222 -0.0217395 2.09575
44 3 10.3189 2.52603 2.09467
57 7 11.8673 -0.0693671 2.03646
58 7 13.3599 2.51622 2.03646
59 1 13.4092 0.760868 3.06131
71 3 14.8668 -0.0614413 2.0567
72 7 16.3451 2.51622 2.03646
85 7 17.8377 -0.0693671 2.03646
86 3 19.3108 2.60099 2.04165
87 1 19.3332 0.915079 3.03173
99 7 20.8229 -0.0693671 2.03646
100 7 22.3155 2.51622 2.03646
101 1 22.3866 0.837692 3.03885
113 3 23.8234 0.17809 1.92992
114 3 25.2904 2.58005 1.99256
115 1 25.2749 0.918764 2.98406
127 7 26.7934 -0.0693671 2.03646
128 7 28.286 2.51622 2.03646
129 1 28.3131 0.805966 3.01911
1401 7 -0.0735423 5.10181 2.03646
1415 7 2.91167 5.10181 2.03646
1429 3 5.87681 5.12112 2.13429
1443 7 8.88209 5.10181 2.03646
1457 7 11.8673 5.10181 2.03646
1471 7 14.8525 5.10181 2.03646
1485 3 17.8444 5.14862 2.07066
88 1 17.8543 3.44406 3.04652
102 1 20.7547 3.43259 3.02783
1499 3 20.816 5.17581 2.13036
1513 7 23.8082 5.10181 2.03646
116 1 23.8879 3.40153 3.02082
130 1 26.7368 3.4034 3.01053
1527 7 26.7934 5.10181 2.03646
1402 7 1.41906 7.6874 2.03646
1416 7 4.40428 7.6874 2.03646
1430 7 7.38949 7.6874 2.03646
1444 7 10.3747 7.6874 2.03646
1458 3 13.359 7.69536 2.10897
1472 3 16.3322 7.6717 2.08433
1486 3 19.3344 7.75583 2.17048
1487 1 19.2901 5.99873 3.05896
1500 7 22.3155 7.6874 2.03646
1514 3 25.2797 7.78216 2.09277
1515 1 25.2686 6.08399 3.05413
1528 3 28.2761 7.73119 2.07271
1529 1 28.3072 6.02698 3.03909
2801 3 -0.0971897 10.3393 2.18979
2815 3 2.90209 10.276 2.13691
2829 7 5.89688 10.273 2.03646
2843 3 8.86469 10.3327 2.14338
2857 7 11.8673 10.273 2.03646
2871 7 14.8525 10.273 2.03646
2885 7 17.8377 10.273 2.03646
2899 3 20.8128 10.3401 2.12841
2913 3 23.791 10.3077 2.13783
2927 7 26.7934 10.273 2.03646
2802 7 1.41906 12.8586 2.03646
2816 7 4.40428 12.8586 2.03646
2830 3 7.37557 12.9155 2.15728
2844 7 10.3747 12.8586 2.03646
2858 7 13.3599 12.8586 2.03646
2872 7 16.3451 12.8586 2.03646
2886 3 19.3654 12.9799 2.12817
2900 7 22.3155 12.8586 2.03646
2914 7 25.3008 12.8586 2.03646
2928 7 28.286 12.8586 2.03646
4201 7 -0.0735423 15.4442 2.03646
4215 7 2.91167 15.4442 2.03646
4229 3 5.89671 15.4847 2.18742
4243 7 8.88209 15.4442 2.03646
4257 7 11.8673 15.4442 2.03646
4271 3 14.8808 15.518 2.17119
4285 3 17.8627 15.5153 2.18024
4299 7 20.8229 15.4442 2.03646
4313 7 23.8082 15.4442 2.03646
4327 7 26.7934 15.4442 2.03646
5601 7 -0.0735423 20.6154 2.03646
4202 7 1.41906 18.0298 2.03646
5615 3 2.93458 20.5828 2.15907
4216 3 4.38782 18.0225 2.1719
5629 7 5.89688 20.6154 2.03646
4230 7 7.38949 18.0298 2.03646
5643 3 8.92546 20.6227 2.23389
4244 3 10.4029 18.0775 2.18364
5657 3 11.8592 20.621 2.21648
4258 3 13.4241 18.0397 2.16143
5671 7 14.8525 20.6154 2.03646
4272 3 16.349 18.0772 2.20552
5685 3 17.8151 20.6772 2.22882
4286 7 19.3303 18.0298 2.03646
5699 3 20.8215 20.6612 2.22861
4300 7 22.3155 18.0298 2.03646
5713 3 23.784 20.6503 2.22262
4314 7 25.3008 18.0298 2.03646
5727 7 26.7934 20.6154 2.03646
4328 7 28.286 18.0298 2.03646
5602 7 1.41906 23.2009 2.03646
5616 7 4.40428 23.2009 2.03646
5630 3 7.4509 23.2518 2.15212
5644 7 10.3747 23.2009 2.03646
5658 7 13.3599 23.2009 2.03646
5672 7 16.3451 23.2009 2.03646
5686 3 19.3148 23.2549 2.24268
5700 7 22.3155 23.2009 2.03646
5714 7 25.3008 23.2009 2.03646
5728 7 28.286 23.2009 2.03646
7001 3 -0.04706 25.781 2.10923
7015 3 2.93912 25.7844 2.1277
7029 3 5.92895 25.7941 2.15813
7043 7 8.88209 25.7865 2.03646
7057 7 11.8673 25.7865 2.03646
7071 3 14.8987 25.7881 2.22301
7085 3 17.8658 25.8228 2.24466
7099 7 20.8229 25.7865 2.03646
7113 3 23.8213 25.8365 2.24145
7127 3 26.758 25.8033 2.2029
7002 3 1.43435 28.3098 2.0916
7016 3 4.41795 28.3405 2.15186
7030 3 7.38579 28.3642 2.14428
7044 3 10.3757 28.4151 2.18377
7058 7 13.3599 28.3721 2.03646
7072 3 16.3904 28.393 2.22761
7086 3 19.32 28.4108 2.23966
7100 7 22.3155 28.3721 2.03646
7114 3 25.239 28.378 2.20374
7128 3 28.4374 28.2724 2.14765
3 1 1.39454 0.80796 3.09464
5 6 -0.0735423 1.65436 4.27785
7 1 -0.0738296 -0.0345205 5.61222
8 1 1.46677 2.54137 5.58637
17 1 4.39041 0.913547 3.11504
19 2 2.90096 1.68494 4.3646
21 1 2.88661 -0.0442522 5.60378
22 1 4.39986 2.53693 5.58138
31 1 7.41172 0.819126 3.09922
33 2 5.88695 1.67362 4.33887
35 1 5.90392 -0.0693455 5.5578
36 1 7.38135 2.5585 5.56934
45 1 10.3333 0.833842 3.08186
47 2 8.88302 1.67029 4.34243
49 1 8.89612 -0.0999255 5.54046
50 1 10.3469 2.51864 5.54546
61 2 11.8585 1.65818 4.28365
63 1 11.8621 -0.0661164 5.49747
64 1 13.3814 2.50693 5.4809
73 1 16.2988 0.790221 3.06923
75 2 14.8423 1.66828 4.29127
77 1 14.8584 -0.0639442 5.51074
78 1 16.3549 2.52284 5.51809
89 2 17.8366 1.68292 4.2611
91 1 17.837 -0.0757621 5.46701
92 1 19.3426 2.5628 5.48295
103 2 20.8328 1.69731 4.24705
105 1 20.8609 -0.0810344 5.44356
106 1 22.3243 2.52214 5.49783
119 1 23.7635 -0.0574878 5.4757
117 2 23.8216 1.70522 4.25021
120 1 25.3186 2.53727 5.45835
131 2 26.7818 1.77663 4.14624
133 5 26.7934 -0.0693671 5.50412
134 1 28.2634 2.515 5.43624
147 1 29.7291 -0.0296707 5.41838
4 1 -0.0163689 3.45241 3.12426
1407 1 -0.0948382 5.16263 5.5695
6 2 1.41966 4.28956 4.35569
18 1 2.89403 3.36173 3.10931
1421 1 2.90252 5.13127 5.5927
20 2 4.39132 4.26465 4.35419
32 1 5.89119 3.39162 3.07632
1435 1 5.884 5.1168 5.58522
34 2 7.376 4.25117 4.35319
46 1 8.86008 3.36165 3.1013
60 1 11.7835 3.36166 3.0817
1449 1 8.87043 5.12506 5.54931
48 2 10.3526 4.26245 4.31978
1463 1 11.8626 5.13637 5.52939
62 2 13.3441 4.25228 4.29307
74 1 14.824 3.40291 3.12424
1477 1 14.8434 5.1051 5.53504
76 2 16.3438 4.25805 4.31205
1491 1 17.8147 5.10348 5.5301
90 2 19.3235 4.25934 4.31199
1505 1 20.8541 5.12861 5.57554
104 6 22.3155 4.23995 4.27785
1519 1 23.812 5.15521 5.5116
118 2 25.2974 4.26238 4.26421
1533 1 26.7786 5.11709 5.46563
132 2 28.2868 4.27937 4.24755
1405 2 -0.100372 6.8501 4.36808
1403 1 1.39754 6.01597 3.18876
1408 1 1.40164 7.71424 5.57914
1419 2 2.89863 6.85342 4.3607
1418 1 2.90366 8.61255 3.15463
1417 1 4.43409 5.96324 3.14394
1422 1 4.38824 7.70817 5.59713
1433 2 5.88046 6.84862 4.35878
1432 1 5.88089 8.58284 3.18686
1431 1 7.32373 5.96917 3.13225
1436 1 7.37386 7.71066 5.57726
1447 2 8.86692 6.85974 4.33558
1446 1 8.8617 8.65028 3.13403
1445 1 10.3421 6.00621 3.16119
1450 1 10.3635 7.72743 5.57055
1460 1 11.9244 8.54693 3.1229
1459 1 13.3335 6.02082 3.10843
1461 2 11.8526 6.83572 4.34051
1464 1 13.3583 7.69247 5.56748
1474 1 14.8572 8.51478 3.0717
1473 1 16.3752 5.98026 3.07321
1488 1 17.769 8.51387 3.07477
1475 2 14.8446 6.82879 4.31846
1478 1 16.3351 7.69906 5.5625
1489 2 17.8189 6.84291 4.33392
1492 1 19.3329 7.71158 5.6404
1502 1 20.8164 8.65714 3.08612
1503 6 20.8229 6.82554 4.27785
1501 1 22.2715 6.0123 3.12249
1506 5 22.3155 7.6874 5.50412
1516 1 23.8202 8.60744 3.11339
1517 2 23.861 6.84264 4.24936
1520 1 25.2162 7.69484 5.50428
1530 1 26.7953 8.55794 3.06504
1531 2 26.7747 6.86211 4.27959
1534 1 28.2935 7.70545 5.50392
2803 1 1.45187 11.0972 3.12111
2807 1 -0.0957679 10.2741 5.63421
1406 2 1.40362 9.43165 4.37484
2821 1 2.89648 10.2999 5.62293
2817 1 4.32826 11.1345 3.15728
1420 2 4.38692 9.4375 4.37374
2831 1 7.40482 11.2055 3.12014
2835 1 5.8842 10.3073 5.58537
1434 2 7.375 9.45237 4.35876
2849 1 8.88425 10.2968 5.6047
2845 1 10.3314 11.1358 3.14703
1448 2 10.3665 9.4396 4.34885
2863 1 11.8439 10.2827 5.59524
2859 1 13.3506 11.1815 3.1725
1462 2 13.356 9.43501 4.33427
2877 1 14.8451 10.2792 5.54836
2873 1 16.3279 11.1796 3.16555
1476 2 16.33 9.4302 4.32812
2887 1 19.3708 11.2846 3.06707
2891 1 17.8182 10.2844 5.57096
1490 6 19.3303 9.41113 4.27785
2901 1 22.3083 11.1394 3.11704
2905 1 20.8454 10.2662 5.60505
1504 2 22.307 9.50915 4.28673
2919 1 23.761 10.2632 5.61127
2915 1 25.2176 11.1646 3.15769
1518 2 25.2704 9.44916 4.33943
2933 1 26.7663 10.3189 5.56013
2929 1 28.2563 11.2139 3.17658
1532 2 28.2671 9.46092 4.3141
2805 6 -0.0735423 11.9967 4.27785
2806 2 1.40761 14.6126 4.3736
2808 1 1.44982 12.8881 5.60964
2819 2 2.89171 12.0287 4.39222
2818 1 2.87847 13.7439 3.18831
2820 2 4.30861 14.5622 4.3016
2822 1 4.40641 12.9134 5.59182
2833 2 5.87514 12.0339 4.3601
2832 1 5.91843 13.7789 3.15134
2834 2 7.44913 14.5619 4.31641
2836 1 7.35599 12.9104 5.58715
2847 2 8.86784 12.0263 4.36367
2846 1 8.84636 13.7333 3.14407
2848 2 10.3653 14.6188 4.37311
2850 1 10.3593 12.8904 5.58286
2861 2 11.8589 12.02 4.3584
2860 1 11.8517 13.7548 3.19738
2862 2 13.363 14.6213 4.39102
2864 1 13.3529 12.8738 5.57473
2875 2 14.8524 12.0315 4.34986
2874 1 14.8461 13.8299 3.15264
2876 2 16.3409 14.6152 4.37778
2878 1 16.3124 12.8575 5.5421
2888 1 17.8866 13.7976 3.12679
2889 2 17.8406 12.0317 4.34373
2890 2 19.324 14.6403 4.40263
2892 1 19.3179 12.8516 5.55592
2903 2 20.8101 12.046 4.36885
2902 1 20.7986 13.7763 3.18326
2904 2 22.316 14.6369 4.41013
2906 1 22.322 12.8664 5.59333
2917 2 23.7758 12.0382 4.39047
2916 1 23.7962 13.7987 3.22556
2918 2 25.2888 14.6335 4.41421
2920 1 25.2828 12.8792 5.60261
2931 2 26.7654 12.0257 4.37901
2930 1 26.7571 13.7731 3.2153
2932 2 28.2552 14.6327 4.40357
2934 1 28.2689 12.8852 5.59554
2944 1 29.7033 13.8199 3.14265
4205 2 -0.100883 17.165 4.3723
4203 1 1.40403 16.3033 3.19021
4217 1 4.39868 16.3158 3.13732
4219 2 2.8871 17.1732 4.36863
4221 1 2.9223 15.467 5.57358
4233 6 5.89688 17.1679 4.27785
4235 5 5.89688 15.4442 5.50412
4231 1 7.36777 16.2645 3.19328
4249 1 8.83909 15.4657 5.60487
4247 2 8.86526 17.175 4.39628
4245 1 10.365 16.3938 3.17438
4259 1 13.411 16.3541 3.16263
4261 2 11.8701 17.1866 4.40231
4263 1 11.8596 15.4712 5.61456
4273 1 16.3685 16.3506 3.15574
4275 2 14.8544 17.2017 4.41998
4277 1 14.8214 15.4526 5.62709
4289 2 17.845 17.2028 4.43335
4291 1 17.8585 15.4879 5.62022
4287 1 19.2933 16.3426 3.21836
4303 2 20.8213 17.2054 4.4338
4305 1 20.8198 15.5164 5.63037
4301 1 22.3162 16.3621 3.24894
4317 2 23.8072 17.2153 4.43158
4319 1 23.8104 15.486 5.65043
4315 1 25.2935 16.3726 3.24425
4331 2 26.7819 17.2144 4.43625
4333 1 26.784 15.4917 5.65009
4329 1 28.2965 16.3435 3.20667
5607 1 -0.0659338 20.6018 5.54732
4206 2 1.30146 19.6742 4.25909
4208 1 1.36362 18.0405 5.54175
5621 5 2.91167 20.6154 5.50412
4218 1 2.93525 18.8994 3.15819
4220 2 4.4345 19.7167 4.34216
4222 1 4.35392 18.0609 5.64103
4232 1 5.80335 18.8743 3.15453
5635 1 5.8505 20.6321 5.61635
4234 6 7.38949 19.7535 4.27785
4236 1 7.38165 17.9983 5.67982
4246 1 8.8799 18.8594 3.08568
5649 1 8.87055 20.6517 5.67138
4248 6 10.3747 19.7535 4.27785
4250 1 10.3561 18.0205 5.64676
4260 1 11.9425 18.8735 3.11608
5663 1 11.8867 20.6499 5.6919
4262 2 13.371 19.7797 4.42977
4264 1 13.3508 18.0534 5.66185
4274 1 14.8611 18.888 3.19113
4288 1 17.7859 18.9729 3.19958
5677 1 14.8689 20.6762 5.64059
4276 2 16.3432 19.7981 4.4487
4278 1 16.3479 18.0968 5.63735
5691 1 17.8138 20.6857 5.69441
4290 2 19.3174 19.7954 4.44846
4292 1 19.3274 18.0653 5.66353
5705 1 20.8063 20.6569 5.68192
4302 1 20.8134 18.9853 3.22789
4304 2 22.314 19.7936 4.44525
4306 1 22.314 18.0703 5.64389
5719 1 23.8029 20.6662 5.71132
4316 1 23.8154 18.9786 3.22557
4318 2 25.2806 19.7972 4.45184
4320 1 25.2947 18.0695 5.67177
4330 1 26.7552 18.9318 3.24964
5733 1 26.8048 20.6649 5.66231
4332 6 28.286 19.7535 4.27785
4334 1 28.2975 18.0727 5.65895
5605 2 -0.0685778 22.3115 4.29787
5603 1 1.46705 21.4065 3.14263
5608 1 1.46512 23.1412 5.49816
5619 2 2.90708 22.4038 4.29591
5617 1 4.34161 21.4351 3.20203
5622 1 4.40159 23.1766 5.58795
5631 1 7.4465 21.5694 3.11433
5633 2 5.89845 22.3436 4.37627
5636 1 7.39195 23.2162 5.64025
5645 1 10.3973 21.5273 3.15214
5647 2 8.89519 22.3786 4.40985
5650 1 10.3828 23.226 5.65735
5661 2 11.8766 22.3755 4.43439
5659 1 13.306 21.4808 3.20804
5664 1 13.4053 23.2218 5.64286
5675 2 14.7819 22.3264 4.35672
5673 1 16.3921 21.5238 3.26151
5678 5 16.3451 23.2009 5.50412
5687 1 19.3226 21.5202 3.17936
5689 2 17.8938 22.3505 4.3965
5692 1 19.2965 23.2324 5.68143
5701 1 22.309 21.4743 3.21585
5703 2 20.817 22.3832 4.45813
5706 1 22.3251 23.2247 5.68684
5717 2 23.7956 22.3753 4.45181
5715 1 25.2293 21.4891 3.23098
5720 1 25.2841 23.2162 5.67714
5731 2 26.7523 22.383 4.44088
5729 1 28.1756 21.5253 3.239
5734 1 28.2664 23.2092 5.6956
7003 1 1.43835 26.6169 3.09382
7007 1 -0.0767129 25.7918 5.54777
5604 1 -0.0777059 24.0984 3.10156
5606 2 1.42464 24.9038 4.33293
7017 1 4.42086 26.6254 3.11592
7021 1 2.91273 25.7718 5.58324
5618 1 2.93033 24.1054 3.12442
5620 2 4.4191 24.9122 4.3665
5632 1 5.96899 24.0877 3.12996
7031 1 7.36894 26.6818 3.15081
7035 1 5.89942 25.7883 5.60686
5634 2 7.40824 24.9395 4.39277
7049 1 8.89101 25.8062 5.61713
5646 1 8.87786 24.0718 3.1988
7045 1 10.4065 26.7435 3.19391
5648 2 10.4011 24.9617 4.41918
7063 1 11.8517 25.8005 5.61678
5660 1 11.8791 24.0974 3.254
7059 1 13.4372 26.6235 3.20904
5662 2 13.3854 24.9389 4.42897
7073 1 16.3647 26.6738 3.19482
7077 1 14.9081 25.7636 5.64639
5674 1 14.8859 24.1267 3.24767
5676 2 16.3537 25.0158 4.40787
7087 1 19.3055 26.7169 3.23214
5688 1 17.873 24.1312 3.24327
7091 1 17.8317 25.7804 5.7148
5690 2 19.3294 24.9589 4.47057
5702 1 20.7704 24.069 3.25461
7105 1 20.8289 25.8201 5.68687
7101 1 22.3695 26.6551 3.25462
5704 2 22.3142 24.9578 4.45952
7115 1 25.3116 26.6997 3.19569
7119 1 23.8106 25.8277 5.70197
5716 1 23.7976 24.1634 3.24479
5718 2 25.2925 24.9515 4.45018
5744 1 29.7072 24.0714 3.10228
7129 1 28.2419 26.6215 3.16082
7133 1 26.7935 25.7886 5.67267
5730 1 26.7652 24.1356 3.22294
5732 2 28.264 24.9196 4.44083
7004 1 -0.0296175 29.1733 3.07574
7005 2 -0.0605069 27.4843 4.34916
7008 1 1.41664 28.3707 5.58917
7018 1 2.88189 29.1511 3.06932
7019 2 2.91289 27.4946 4.36462
7022 1 4.39636 28.3563 5.63699
7032 1 5.91531 29.1753 3.11011
7033 2 5.90103 27.5124 4.38626
7036 1 7.38 28.3979 5.62799
7046 1 8.85765 29.2441 3.12397
7060 1 11.8271 29.28 3.17908
7047 2 8.88563 27.533 4.39985
7050 1 10.3605 28.4059 5.65262
7061 2 11.88 27.5479 4.40656
7064 1 13.3258 28.4057 5.58608
7074 1 14.9197 29.2493 3.20278
7075 2 14.8668 27.5172 4.43421
7078 1 16.3756 28.3702 5.67448
7088 1 17.8479 29.2653 3.2233
7102 1 20.7801 29.2781 3.22387
7089 2 17.8392 27.5354 4.48783
7092 1 19.3341 28.3874 5.70978
7103 2 20.8372 27.5387 4.45998
7106 1 22.3271 28.4105 5.69937
7116 1 23.8654 29.2813 3.24011
7117 2 23.813 27.5433 4.45964
7120 1 25.3365 28.3956 5.64294
7131 2 26.8046 27.4203 4.50686
7130 5 26.7934 29.234 3.092
7134 1 28.266 28.3486 5.70092
11 1 -0.0253697 1.62491 8.10194
13 3 -0.0617402 -0.0578317 9.0584
9 2 1.44221 0.806873 6.82314
14 3 1.43746 2.5345 9.04123
25 1 2.91816 1.71443 8.05427
27 7 2.91167 -0.0693671 8.97177
23 2 4.39177 0.801721 6.80465
28 3 4.39685 2.53032 9.05138
39 1 5.80607 1.64189 8.06321
41 3 5.75079 0.000166061 9.10126
37 6 7.38949 0.792496 6.73038
42 7 7.38949 2.51622 8.97177
53 1 8.92987 1.59808 7.99899
55 3 9.00178 -0.0229113 9.04777
51 2 10.384 0.790452 6.75494
56 7 10.3747 2.51622 8.97177
67 1 11.907 1.58621 8.01325
69 3 11.8778 -0.090943 8.98417
65 2 13.3657 0.787251 6.73381
70 3 13.376 2.46974 8.96355
81 1 14.8456 1.62291 7.98225
83 3 14.8413 -0.0771475 8.96285
79 2 16.3625 0.802037 6.73932
84 7 16.3451 2.51622 8.97177
95 1 17.8908 1.73055 7.97462
97 7 17.8377 -0.0693671 8.97177
93 6 19.3303 0.792496 6.73038
98 3 19.4013 2.4912 8.94752
109 1 20.8563 1.68545 7.93134
111 7 20.8229 -0.0693671 8.97177
107 2 22.3349 0.802032 6.66062
112 7 22.3155 2.51622 8.97177
123 1 23.7968 1.63367 7.84677
125 7 23.8082 -0.0693671 8.97177
121 6 25.3008 0.792496 6.73038
126 7 25.3008 2.51622 8.97177
137 1 26.8251 1.62806 7.8198
139 7 26.7934 -0.0693671 8.97177
135 2 28.3258 0.849979 6.67773
140 7 28.286 2.51622 8.97177
1413 7 -0.0735423 5.10181 8.97177
10 6 -0.0735423 3.37809 6.73038
12 1 1.43844 4.2095 8.04334
1427 7 2.91167 5.10181 8.97177
24 2 2.91193 3.39727 6.80763
26 1 4.45337 4.23136 8.07091
1441 3 5.91573 5.11707 9.03423
38 2 5.89407 3.39175 6.81739
40 1 7.40118 4.30731 8.04499
1455 3 8.86462 5.16948 9.0252
52 2 8.87407 3.39799 6.79992
54 1 10.2715 4.30775 8.03435
1469 7 11.8673 5.10181 8.97177
66 6 11.8673 3.37809 6.73038
68 1 13.4168 4.17233 8.00867
1483 7 14.8525 5.10181 8.97177
80 2 14.8712 3.37228 6.75221
82 1 16.355 4.24582 7.93816
1497 7 17.8377 5.10181 8.97177
94 2 17.8494 3.39864 6.74778
96 1 19.4139 4.18409 8.00826
1511 3 20.8732 5.07877 8.96819
108 2 20.8586 3.39432 6.73127
110 1 22.3707 4.26206 8.00014
1525 3 23.855 5.1218 8.95567
122 2 23.8259 3.38389 6.70518
124 1 25.3079 4.26598 7.95295
1539 3 26.7838 5.0905 8.95199
136 2 26.7921 3.37938 6.68271
138 1 28.2492 4.25262 7.94793
1553 3 29.7226 5.09011 8.93313
1411 1 -0.0485239 6.85459 8.03182
1410 2 -0.0987105 8.57657 6.82495
1409 2 1.4049 5.99079 6.81861
1414 3 1.3822 7.70048 9.05085
1425 1 2.83838 6.88155 8.0415
1424 2 2.89686 8.575 6.82985
1423 2 4.38845 5.98171 6.82784
1428 7 4.40428 7.6874 8.97177
1439 1 5.87562 6.79042 8.0292
1438 2 5.88473 8.57476 6.81944
1437 2 7.38173 5.98787 6.80416
1442 7 7.38949 7.6874 8.97177
1452 2 8.8035 8.53238 6.74459
1453 1 8.9315 6.85029 8.01823
1451 2 10.3687 5.99081 6.77727
1456 3 10.398 7.61386 9.03531
1467 1 11.8337 6.8719 7.9746
1466 2 11.947 8.51559 6.73869
1465 2 13.3578 5.95508 6.78334
1470 7 13.3599 7.6874 8.97177
1481 1 14.846 6.79477 7.96121
1480 2 14.852 8.54654 6.79222
1479 2 16.328 5.96416 6.75972
1484 7 16.3451 7.6874 8.97177
1495 1 17.782 6.83713 7.95592
1494 2 17.8233 8.54789 6.79345
1493 6 19.3303 5.96368 6.73038
1498 7 19.3303 7.6874 8.97177
1508 2 20.7331 8.5965 6.89555
1509 1 20.874 6.76502 7.98782
1507 2 22.3413 5.90008 6.82807
1512 7 22.3155 7.6874 8.97177
1523 1 23.8258 6.81326 7.96491
1522 2 23.8143 8.58916 6.86075
1521 2 25.2763 5.96413 6.70966
1526 3 25.2969 7.63844 8.96403
1551 1 29.7131 6.81138 7.99605
1537 1 26.7867 6.78839 8.00002
1536 6 26.7934 8.54927 6.73038
1535 2 28.2667 5.96294 6.71766
1540 3 28.2667 7.65333 8.97151
2813 3 -0.106475 10.2445 9.08071
2809 2 1.41225 11.1433 6.84848
1412 1 1.35846 9.40378 8.08227
2827 7 2.91167 10.273 8.97177
2823 2 4.39619 11.1627 6.81763
1426 1 4.41145 9.43646 7.99789
2841 7 5.89688 10.273 8.97177
2837 2 7.37739 11.1584 6.80345
1440 1 7.43459 9.44664 7.99998
2855 3 8.78776 10.3375 9.05472
2851 2 10.3629 11.257 6.75079
1454 5 10.3747 9.41113 7.91623
2869 7 11.8673 10.273 8.97177
2865 2 13.3428 11.133 6.7931
1468 1 13.4018 9.41987 7.99406
2883 3 14.8412 10.2616 9.01232
2879 2 16.3407 11.1221 6.77845
1482 1 16.3361 9.43928 8.04296
2897 3 17.8016 10.2752 9.04903
2893 2 19.3123 11.127 6.80695
1496 1 19.2853 9.43814 8.07034
2911 3 20.7659 10.2624 9.05571
2907 2 22.2831 11.1257 6.82192
1510 1 22.2056 9.42656 8.02999
2925 7 23.8082 10.273 8.97177
2921 2 25.2778 11.1428 6.82353
1524 1 25.2124 9.35974 8.0504
2939 7 26.7934 10.273 8.97177
2935 2 28.2693 11.142 6.80963
1538 1 28.3903 9.40151 8.08226
2811 1 -0.0759574 11.9007 8.10065
2810 6 -0.0735423 13.7204 6.73038
2812 1 1.41611 14.672 8.06448
2814 7 1.41906 12.8586 8.97177
2825 1 2.9174 12.017 7.99874
2824 2 2.89286 13.7425 6.80504
2826 1 4.32613 14.6419 8.01888
2828 7 4.40428 12.8586 8.97177
2839 1 5.91807 12.0383 8.0382
2838 2 5.87682 13.6751 6.88043
2840 1 7.35126 14.5395 8.01725
2842 3 7.38546 12.8649 9.02116
2853 1 8.83625 11.9883 8.03463
2852 2 8.85372 13.7432 6.81454
2854 1 10.3477 14.5916 7.99857
2856 7 10.3747 12.8586 8.97177
2867 1 11.8772 12.0149 8.00267
2866 2 11.8529 13.7329 6.82103
2868 1 13.3318 14.5223 8.05747
2870 3 13.3288 12.8262 9.02485
2881 1 14.8236 11.9826 8.05885
2880 2 14.8266 13.7135 6.82752
2882 1 16.2951 14.4715 8.1169
2884 3 16.3147 12.793 9.05782
2895 1 17.8046 11.9602 8.07538
2894 6 17.8377 13.7204 6.73038
2896 1 19.3557 14.6071 8.15063
2898 3 19.3009 12.8496 8.99332
2909 1 20.7696 11.931 8.07405
2908 6 20.8229 13.7204 6.73038
2910 1 22.3409 14.6267 8.04716
2912 7 22.3155 12.8586 8.97177
2923 1 23.8575 12.0259 8.05001
2922 2 23.8071 13.7403 6.84661
2924 1 25.2832 14.5524 8.07641
2926 3 25.3065 12.8644 9.05448
2937 1 26.7805 12.036 8.0625
2936 2 26.7813 13.7412 6.8471
2938 1 28.2843 14.5314 8.07069
2940 3 28.2728 12.8424 9.04822
4209 2 1.39307 16.3311 6.79255
4225 1 2.88764 17.1004 8.05352
4227 3 2.88382 15.458 9.05341
4223 2 4.31858 16.3515 6.86559
4239 1 5.8798 17.1451 7.97979
4241 7 5.89688 15.4442 8.97177
4237 2 7.44188 16.3579 6.89126
4253 1 8.89523 17.1852 8.06078
4255 7 8.88209 15.4442 8.97177
4251 2 10.3547 16.3277 6.83065
4267 1 11.7972 17.2085 8.0802
4269 7 11.8673 15.4442 8.97177
4265 2 13.3381 16.3184 6.87361
4281 1 14.8505 17.2084 8.1039
4283 7 14.8525 15.4442 8.97177
4279 6 16.3451 16.306 6.73038
4295 1 17.8252 17.2549 8.12491
4297 7 17.8377 15.4442 8.97177
4293 2 19.3337 16.3513 6.89127
4309 1 20.8644 17.2272 8.10432
4311 7 20.8229 15.4442 8.97177
4307 2 22.3199 16.3519 6.8743
4323 1 23.7658 17.2276 8.10367
4325 7 23.8082 15.4442 8.97177
4321 2 25.2998 16.343 6.89389
4351 1 29.7373 17.2117 8.09195
4337 1 26.8515 17.23 8.09049
4339 7 26.7934 15.4442 8.97177
4335 2 28.2901 16.3513 6.85938
5613 7 -0.0735423 20.6154 8.97177
4210 2 -0.102018 18.8955 6.76396
4212 1 1.46657 19.8075 7.93991
4214 7 1.41906 18.0298 8.97177
5627 3 2.88601 20.6361 8.98396
4224 6 2.91167 18.8916 6.73038
4226 1 4.4334 19.851 8.0712
4228 7 4.40428 18.0298 8.97177
5641 3 5.87851 20.6608 9.0759
4238 2 5.87271 18.8976 6.84942
4240 1 7.34525 19.7993 8.09696
4242 7 7.38949 18.0298 8.97177
5655 3 8.83584 20.6081 9.0813
4252 2 8.84231 18.8864 6.86095
4254 1 10.303 19.7344 8.11483
4256 3 10.3313 18.0274 9.07781
5669 7 11.8673 20.6154 8.97177
4266 2 11.854 18.9079 6.88678
4268 1 13.3944 19.788 8.08835
4270 7 13.3599 18.0298 8.97177
5683 3 14.8283 20.6315 9.10516
4280 2 14.84 18.9218 6.87623
4282 1 16.2978 19.759 8.14155
4284 3 16.3173 18.0382 9.08271
5697 7 17.8377 20.6154 8.97177
4294 2 17.8391 18.9408 6.89189
4296 1 19.3226 19.7865 8.07625
4298 7 19.3303 18.0298 8.97177
5711 7 20.8229 20.6154 8.97177
4308 2 20.8194 18.9248 6.89274
4310 1 22.3155 19.7461 8.09472
4312 3 22.3155 18.0728 9.09787
5725 7 23.8082 20.6154 8.97177
4322 2 23.8081 18.9335 6.89518
4324 1 25.3561 19.8395 8.08507
4326 7 25.3008 18.0298 8.97177
5739 3 26.812 20.6494 9.09702
4336 2 26.7987 18.9316 6.88594
4338 1 28.3024 19.814 8.11136
4340 3 28.299 18.0939 9.07438
5611 1 -0.0762202 22.3206 8.03809
5609 2 1.34264 21.5087 6.82275
5614 3 1.40402 23.1814 8.98945
5625 1 2.84929 22.3157 7.98236
5623 2 4.48663 21.522 6.86747
5628 7 4.40428 23.2009 8.97177
5639 1 5.89763 22.316 8.04588
5637 2 7.39221 21.483 6.84484
5642 7 7.38949 23.2009 8.97177
5653 1 8.88717 22.2813 8.07653
5651 2 10.3612 21.4832 6.87954
5656 7 10.3747 23.2009 8.97177
5667 1 11.9133 22.377 8.08884
5665 2 13.3584 21.4923 6.86939
5670 3 13.3742 23.1597 9.11913
5681 1 14.8336 22.3216 8.10818
5679 2 16.3452 21.4303 6.9735
5684 7 16.3451 23.2009 8.97177
5695 1 17.8968 22.4134 8.1123
5693 2 19.3224 21.52 6.90668
5698 3 19.3588 23.2267 9.11959
5709 1 20.8425 22.4116 8.13003
5707 2 22.2246 21.4595 6.85038
5712 3 22.2455 23.2813 9.15145
5723 5 23.8082 22.3391 7.91623
5721 2 25.3954 21.4557 6.81806
5726 3 25.3835 23.2442 9.1604
5737 1 26.7483 22.3429 8.11372
5735 2 28.2066 21.5713 6.9642
5740 7 28.286 23.2009 8.97177
7013 3 -0.089354 25.7136 8.97078
5610 6 -0.0735423 24.0628 6.73038
7009 2 1.41506 26.6347 6.806
5612 1 1.48598 24.9307 8.08969
7027 3 2.94005 25.796 9.0564
5624 2 2.92525 24.049 6.793
7023 2 4.40045 26.665 6.82139
5626 1 4.42126 24.9757 8.06544
7041 3 5.88778 25.8246 9.05485
5638 2 5.89818 24.0735 6.83935
7037 2 7.382 26.6727 6.84635
5640 1 7.38666 24.9928 8.09834
7055 3 8.86274 25.8352 9.07946
5652 2 8.88306 24.0808 6.87435
7051 2 10.3581 26.6843 6.86729
5654 1 10.3606 25.0077 8.11801
7069 3 11.8732 25.824 9.0689
5666 2 11.8705 24.0743 6.87676
7065 6 13.3599 26.6484 6.73038
5668 1 13.3555 24.8707 8.18701
5680 2 14.7996 24.0968 6.95461
7083 3 14.8374 25.7678 9.12546
7079 2 16.3618 26.6527 6.9179
5682 1 16.2839 24.9423 8.10508
7097 7 17.8377 25.7865 8.97177
5694 2 17.907 24.1233 6.9806
7093 2 19.3429 26.6689 6.93167
5696 1 19.3456 24.9135 8.14073
7111 7 20.8229 25.7865 8.97177
5708 2 20.8315 24.0943 6.90096
7107 2 22.3233 26.6895 6.91761
5710 1 22.3378 24.9037 8.10429
7125 7 23.8082 25.7865 8.97177
5722 2 23.8087 24.1711 6.8526
7121 2 25.3024 26.67 6.91222
5724 1 25.3318 24.8924 8.13358
7139 3 26.7766 25.7851 9.11261
5736 2 26.8038 24.0709 6.88476
7135 2 28.303 26.6659 6.9012
5738 1 28.2466 24.9821 8.11049
7010 2 -0.0848189 29.2271 6.78596
7014 7 1.41906 28.3721 8.97177
7025 1 2.89646 27.459 8.03554
7024 2 2.88698 29.2359 6.82024
7028 7 4.40428 28.3721 8.97177
7039 1 5.87798 27.4971 8.05146
7038 2 5.87126 29.2592 6.84803
7042 7 7.38949 28.3721 8.97177
7053 1 8.8565 27.5032 8.06958
7052 2 8.85417 29.2654 6.86384
7056 7 10.3747 28.3721 8.97177
7066 2 11.8295 29.2814 6.8719
7067 1 11.8352 27.5495 8.1436
7070 3 13.3589 28.375 9.05387
7081 1 14.9214 27.5002 8.23771
7080 6 14.8525 29.234 6.73038
7084 3 16.382 28.4024 9.15653
7095 1 17.8232 27.5581 8.14712
7094 2 17.8657 29.2599 6.94165
7098 7 19.3303 28.3721 8.97177
7108 2 20.7708 29.2085 6.86201
7109 1 20.8473 27.5492 8.07824
7112 7 22.3155 28.3721 8.97177
7123 1 23.8611 27.6135 8.10385
7122 2 23.9309 29.2091 6.83762
7126 3 25.3318 28.4009 9.11418
7136 2 26.8247 29.2306 6.88512
7140 7 28.286 28.3721 8.97177
7137 1 26.7653 27.4875 8.13701
8401 7 -0.0735423 30.9577 2.03646
8415 7 2.91167 30.9577 2.03646
8429 7 5.89688 30.9577 2.03646
8443 3 8.88476 30.9606 2.15496
8457 3 11.8773 30.9956 2.22999
8471 3 14.9205 30.9308 2.19802
8485 3 17.8566 30.9766 2.24913
8499 3 20.8007 30.9782 2.24119
8513 3 23.8056 30.9646 2.23874
8527 3 26.7346 31.1271 2.1253
8402 3 1.44321 33.5606 2.06796
8404 1 -0.0546442 34.4399 2.99632
8416 7 4.40428 33.5433 2.03646
8430 7 7.38949 33.5433 2.03646
8444 3 10.3122 33.4936 2.12252
8458 7 13.3599 33.5433 2.03646
8472 7 16.3451 33.5433 2.03646
8486 3 19.2705 33.5232 2.20282
8500 3 22.3108 33.4919 2.20004
8514 7 25.3008 33.5433 2.03646
8528 3 28.2637 33.5535 2.14207
9801 3 -0.0338104 36.1671 2.04382
9802 3 1.53958 38.6644 1.99784
9803 1 1.40001 37.041 3.0538
9815 7 2.91167 36.1289 2.03646
9816 3 4.43862 38.7213 2.07836
9817 1 4.49079 37.0251 3.05973
9829 3 5.95556 36.1348 2.10434
9830 7 7.38949 38.7145 2.03646
9843 3 8.93334 36.0921 2.13299
9844 3 10.4406 38.6738 2.19405
9857 3 11.8803 36.2035 2.17029
9858 3 13.3539 38.6396 2.21471
9871 7 14.8525 36.1289 2.03646
9872 3 16.36 38.6768 2.19087
9885 3 17.8979 36.1141 2.2158
9886 7 19.3303 38.7145 2.03646
9899 3 20.8152 36.15 2.21286
9900 7 22.3155 38.7145 2.03646
9913 7 23.8082 36.1289 2.03646
9914 3 25.3199 38.7901 2.21326
9927 7 26.7934 36.1289 2.03646
9928 7 28.286 38.7145 2.03646
11201 3 -0.0185898 41.3496 2.01707
11215 7 2.91167 41.3001 2.03646
9818 1 2.93167 39.5402 3.03274
11229 7 5.89688 41.3001 2.03646
11243 7 8.88209 41.3001 2.03646
11257 7 11.8673 41.3001 2.03646
11271 7 14.8525 41.3001 2.03646
11285 7 17.8377 41.3001 2.03646
11299 3 20.8502 41.3381 2.19281
11313 3 23.8511 41.2856 2.19772
11327 7 26.7934 41.3001 2.03646
11202 7 1.41906 43.8857 2.03646
11204 1 0.0011389 44.7531 3.04335
11203 1 1.41147 42.1539 3.03979
11216 7 4.40428 43.8857 2.03646
11218 1 2.89961 44.8146 3.02243
11230 7 7.38949 43.8857 2.03646
11244 7 10.3747 43.8857 2.03646
11258 3 13.3948 43.9223 2.14468
11272 7 16.3451 43.8857 2.03646
11286 3 19.3853 43.9211 2.18084
11300 7 22.3155 43.8857 2.03646
11314 7 25.3008 43.8857 2.03646
11328 7 28.286 43.8857 2.03646
12601 7 -0.0735423 46.4713 2.03646
12603 1 1.49282 47.3405 3.03719
12615 3 2.98829 46.523 2.08814
12629 7 5.89688 46.4713 2.03646
12643 7 8.88209 46.4713 2.03646
12657 3 11.932 46.4728 2.12665
12671 7 14.8525 46.4713 2.03646
12685 3 17.8968 46.4306 2.16118
12699 3 20.8271 46.4683 2.16119
12713 7 23.8082 46.4713 2.03646
12727 3 26.836 46.4705 2.17235
12602 7 1.41906 49.0568 2.03646
12604 1 -0.0508758 49.9282 3.05758
12616 3 4.4563 49.0393 2.06415
12618 1 3.05696 49.8996 3.06396
12630 3 7.39849 49.0276 2.09593
12644 7 10.3747 49.0568 2.03646
12658 7 13.3599 49.0568 2.03646
12672 7 16.3451 49.0568 2.03646
12686 7 19.3303 49.0568 2.03646
12700 3 22.3181 49.0627 2.13983
12714 7 25.3008 49.0568 2.03646
12728 3 28.2928 49.0918 2.17124
14001 7 -0.0735423 51.6424 2.03646
14015 7 2.91167 51.6424 2.03646
14017 1 4.41321 52.5949 3.06331
14029 7 5.89688 51.6424 2.03646
14043 7 8.88209 51.6424 2.03646
14057 3 11.9474 51.6527 2.15098
14071 7 14.8525 51.6424 2.03646
14085 3 17.8549 51.6505 2.12918
14099 7 20.8229 51.6424 2.03646
14113 3 23.8443 51.6403 2.14534
14127 3 26.6996 51.5785 2.08832
15401 3 0.125382 56.693 1.89282
14002 7 1.41906 54.228 2.03646
14004 1 0.0244223 55.0749 2.95658
14016 3 4.42103 54.2443 2.05402
15429 3 5.8144 56.7614 2.01851
15415 3 2.93034 56.7967 1.98221
14030 7 7.38949 54.228 2.03646
14044 7 10.3747 54.228 2.03646
14046 1 8.90813 55.246 3.04023
15457 7 11.8673 56.8136 2.03646
14058 7 13.3599 54.228 2.03646
15471 7 14.8525 56.8136 2.03646
14072 7 16.3451 54.228 2.03646
15485 7 17.8377 56.8136 2.03646
14086 7 19.3303 54.228 2.03646
15499 7 20.8229 56.8136 2.03646
14100 7 22.3155 54.228 2.03646
15513 7 23.8082 56.8136 2.03646
14114 7 25.3008 54.228 2.03646
15527 3 26.7975 56.8034 2.14083
14128 3 28.3012 54.3434 2.11552
15402 3 1.38831 59.3523 2.08661
15403 1 1.47605 57.5939 2.96888
15416 7 4.40428 59.3992 2.03646
15417 1 4.34284 57.5867 3.01371
15430 3 7.43485 59.4353 2.17098
15431 1 7.3097 57.624 2.92816
15443 3 8.90311 56.9105 2.06944
15444 3 10.3401 59.476 2.13724
15445 1 10.419 57.7209 3.0094
15458 7 13.3599 59.3992 2.03646
15472 7 16.3451 59.3992 2.03646
15486 3 19.3625 59.4147 2.1283
15500 3 22.3413 59.419 2.14606
15514 3 25.3388 59.3959 2.17891
15528 3 28.2475 59.3941 2.17765
8405 2 -0.0617031 32.706 4.27328
8407 1 -0.0897036 30.9499 5.48132
8403 1 1.44918 31.8925 3.08075
7006 2 1.42797 30.0918 4.30129
8419 2 2.91998 32.7161 4.31588
8421 1 2.90926 30.9682 5.5307
8417 1 4.44019 31.8965 3.16413
7020 6 4.40428 30.0959 4.27785
8433 2 5.90462 32.7177 4.35539
8435 1 5.89867 30.9972 5.61852
8431 1 7.43827 31.8018 3.16228
7034 2 7.37972 30.114 4.38659