ITEM: TIMESTEP
100000
ITEM: NUMBER OF ATOMS
81200
ITEM: BOX BOUNDS pp pp pp
1.8418597264450044e-02 2.9828107729876217e+02
-1.0656374518284600e-03 2.9964877761161705e+02
0.0000000000000000e+00 4.9031656433928198e+01
ITEM: ATOMS id type x y z
2 3 1.52975 2.65013 2.10315
15 7 3.03833 0.0698739 2.03646
16 3 4.51326 2.66995 2.08362
29 7 6.02095 0.0698739 2.03646
30 3 7.51966 2.6602 2.06871
31 1 7.5504 0.959383 3.04506
43 3 9.01179 0.121607 2.04018
44 3 10.4595 2.66643 2.0452
45 1 10.4714 0.973652 3.03116
57 7 11.9862 0.0698739 2.03646
58 3 13.4775 2.65306 2.03646
59 1 13.5464 0.898827 3.02048
71 3 15.0083 0.0813756 2.01795
72 7 16.4601 2.65306 2.03646
73 1 16.4345 0.929383 3.04122
85 3 17.9515 0.0698739 2.03646
86 3 19.4529 2.73481 2.04025
87 1 19.4593 1.04818 3.02773
99 7 20.9341 0.0698739 2.03646
100 3 22.4254 2.65306 2.03646
101 1 22.4775 0.929049 3.05059
113 7 23.9307 0.219237 1.99118
114 3 25.3837 2.67673 2.01001
115 1 25.3806 1.01766 3.00563
127 7 26.8993 0.0698739 2.03646
128 7 28.3907 2.65306 2.03646
129 1 28.4238 0.909971 3.04645
1401 7 0.0557015 5.23625 2.03646
1415 7 3.03833 5.23625 2.03646
1429 3 6.00469 5.25196 2.08437
32 1 6.0223 3.52121 3.024
1443 7 9.00358 5.23625 2.03646
46 1 8.99686 3.5015 3.04671
60 1 11.9206 3.49944 3.03952
1457 7 11.9862 5.23625 2.03646
1471 7 14.9688 5.23625 2.03646
1485 3 17.9819 5.28499 2.04787
88 1 17.9866 3.58195 3.02637
1499 3 20.924 5.28804 2.07212
102 1 20.9145 3.57999 3.03454
1513 7 23.9167 5.23625 2.03646
116 1 23.9658 3.52391 3.04512
130 1 26.8397 3.50328 3.01344
1527 7 26.8993 5.23625 2.03646
1402 7 1.54701 7.81944 2.03646
1416 7 4.52964 7.81944 2.03646
1430 7 7.51227 7.81944 2.03646
1444 7 10.4949 7.81944 2.03646
1458 3 13.5046 7.83261 2.07476
1472 3 16.4918 7.82146 2.07591
1474 1 14.9982 8.65175 3.04528
1473 1 16.5166 6.12202 3.05112
1486 7 19.448 7.86605 2.10143
1487 1 19.4303 6.13156 3.03466
1502 1 20.8873 8.80794 3.04874
1500 7 22.4254 7.81944 2.03646
1501 1 22.4198 6.0673 3.05203
1514 3 25.3988 7.89178 2.07605
1515 1 25.3906 6.19351 3.03762
1528 3 28.3926 7.83676 2.06668
1530 1 26.9107 8.66938 3.05231
1529 1 28.4168 6.13431 3.03644
2801 3 0.0411882 10.4361 2.12334
2815 3 3.00901 10.411 2.10845
2829 7 6.02095 10.4026 2.03646
2843 7 8.99472 10.4635 2.09521
2857 7 11.9862 10.4026 2.03646
2871 7 14.9688 10.4026 2.03646
2885 7 17.9515 10.4026 2.03646
2899 3 20.9306 10.4827 2.0759
2913 3 23.911 10.4148 2.10691
2927 7 26.8993 10.4026 2.03646
2802 3 1.54701 12.9858 2.03646
2816 7 4.52964 12.9858 2.03646
2830 3 7.50132 13.0445 2.10999
2844 7 10.4949 12.9858 2.03646
2858 7 13.4775 12.9858 2.03646
2872 7 16.4601 12.9858 2.03646
2886 3 19.4775 13.0658 2.1173
2900 7 22.4254 12.9858 2.03646
2914 7 25.408 12.9858 2.03646
2928 7 28.3907 12.9858 2.03646
4201 7 0.0557015 15.569 2.03646
4215 7 3.03833 15.569 2.03646
4229 3 6.0176 15.6007 2.12619
4243 7 9.00358 15.569 2.03646
4257 7 11.9862 15.569 2.03646
4271 3 15.0043 15.6398 2.12495
4285 3 17.9805 15.6239 2.13876
4299 7 20.9341 15.569 2.03646
4313 7 23.9167 15.569 2.03646
4327 7 26.8993 15.569 2.03646
5601 7 0.0557015 20.7354 2.03646
4202 7 1.54701 18.1522 2.03646
5615 3 3.05051 20.7111 2.12036
4216 3 4.5185 18.1506 2.12616
5629 7 6.02095 20.7354 2.03646
4230 7 7.51227 18.1522 2.03646
4246 1 8.95588 19.0266 3.0618
5643 3 9.04924 20.7594 2.15247
4244 3 10.5032 18.2299 2.16414
5657 3 11.9845 20.7439 2.15791
4258 3 13.5499 18.1625 2.10663
5671 7 14.9688 20.7354 2.03646
4272 3 16.4704 18.1944 2.15097
5685 3 17.9343 20.7966 2.16402
4286 7 19.4428 18.1522 2.03646
5699 3 20.9416 20.7777 2.16331
4300 7 22.4254 18.1522 2.03646
5713 3 23.9083 20.765 2.15807
4314 7 25.408 18.1522 2.03646
5727 7 26.8993 20.7354 2.03646
4328 7 28.3907 18.1522 2.03646
5602 7 1.54701 23.3186 2.03646
5616 7 4.52964 23.3186 2.03646
5630 3 7.56385 23.3408 2.12885
5644 7 10.4949 23.3186 2.03646
5658 7 13.4775 23.3186 2.03646
5672 7 16.4601 23.3186 2.03646
5686 3 19.4341 23.3731 2.17172
5700 7 22.4254 23.3186 2.03646
5714 7 25.408 23.3186 2.03646
5728 7 28.3907 23.3186 2.03646
7001 3 0.0827625 25.8996 2.09216
7015 3 3.06318 25.9033 2.09906
7029 3 6.05429 25.9081 2.12474
7043 7 9.00358 25.9018 2.03646
7057 7 11.9862 25.9018 2.03646
7071 3 15.0051 25.9132 2.16564
7085 3 17.9758 25.9456 2.17342
7099 7 20.9341 25.9018 2.03646
7113 7 23.946 25.9539 2.17009
7127 3 26.9017 25.9357 2.152
7002 3 1.58142 28.446 2.08835
7004 1 0.101189 29.2951 3.05945
7016 3 4.54897 28.4514 2.10903
7030 7 7.51026 28.4925 2.13155
7044 3 10.5 28.5272 2.14808
7058 7 13.4775 28.4849 2.03646
7072 3 16.4833 28.5232 2.1712
7086 3 19.425 28.5328 2.16879
7100 7 22.4254 28.4849 2.03646
7114 3 25.3523 28.4935 2.12908
7128 7 28.4964 28.4101 2.07192
3 1 1.48026 0.950232 3.0777
5 2 0.0494834 1.80981 4.33825
7 1 0.0715556 0.0822873 5.57199
8 1 1.55587 2.66366 5.55635
19 2 3.03781 1.79653 4.31198
21 1 3.05216 0.0719279 5.53469
17 1 4.52716 0.998797 3.08993
22 1 4.54117 2.66266 5.53282
33 2 6.02498 1.79786 4.29218
35 1 6.05055 0.0629282 5.51209
36 1 7.51743 2.67194 5.53124
47 2 9.01616 1.80718 4.29303
49 1 8.99578 0.0547032 5.50794
50 1 10.4766 2.65198 5.50015
61 2 11.9908 1.79377 4.23974
63 1 11.9882 0.0664571 5.44863
64 1 13.5087 2.6402 5.44379
75 2 14.9731 1.80294 4.25823
77 1 14.983 0.0674982 5.47405
78 1 16.4789 2.6559 5.49316
89 2 17.9656 1.81807 4.25074
91 1 17.9788 0.0756487 5.47227
92 1 19.4629 2.67078 5.48854
103 2 20.9506 1.8273 4.24748
105 1 20.9585 0.0677354 5.46151
106 1 22.443 2.66001 5.47946
117 2 23.9247 1.8061 4.25747
119 1 23.8971 0.0316328 5.45777
120 1 25.4188 2.62042 5.48189
131 2 26.886 1.87601 4.16611
133 1 26.8993 0.0698738 5.50412
134 1 28.3612 2.62856 5.45414
147 1 29.843 0.0730641 5.46974
1407 1 0.0532475 5.25186 5.56914
4 1 0.106673 3.51045 3.12463
6 2 1.54863 4.3939 4.33182
18 1 3.023 3.47838 3.07028
1421 1 3.04127 5.25247 5.55787
20 2 4.52516 4.38909 4.30827
1435 1 6.01995 5.24853 5.53252
34 2 7.50997 4.39819 4.28916
1449 1 9.00444 5.26104 5.49715
48 2 10.4867 4.39839 4.27266
1463 1 11.9951 5.27152 5.48644
62 2 13.4781 4.38812 4.25661
1477 1 14.9748 5.23951 5.5042
74 1 14.9589 3.53982 3.09105
76 2 16.4678 4.38932 4.27884
1491 1 17.9695 5.24888 5.5314
90 2 19.4573 4.40498 4.29131
1505 1 20.9686 5.24337 5.54331
104 2 22.4414 4.38965 4.26699
1519 1 23.9055 5.26489 5.47488
118 2 25.4 4.38642 4.25095
1533 1 26.8826 5.23323 5.46352
132 2 28.3792 4.38556 4.24667
1405 2 0.0411561 6.9769 4.33276
1404 1 0.0190538 8.7573 3.11969
1403 1 1.53191 6.13165 3.15881
1408 1 1.54097 7.83701 5.54472
1419 2 3.0315 6.97601 4.32193
1418 1 3.03041 8.74021 3.11371
1417 1 4.56192 6.08883 3.09835
1422 1 4.52287 7.8347 5.55035
1433 2 6.0116 6.97847 4.30848
1432 1 6.00909 8.71207 3.13721
1431 1 7.45375 6.10353 3.0768
1436 1 7.50702 7.84116 5.52673
1447 2 9.00082 6.9935 4.28547
1446 1 8.99446 8.78091 3.08541
1445 1 10.4796 6.14176 3.11399
1450 1 10.496 7.86074 5.52445
1461 2 11.9884 6.97045 4.29848
1460 1 12.062 8.67972 3.08114
1459 1 13.4745 6.15694 3.07198
1464 1 13.4905 7.82794 5.53152
1475 2 14.9824 6.96502 4.28949
1478 1 16.4701 7.83463 5.54081
1488 1 17.9497 8.67344 3.07461
1489 2 17.963 6.98359 4.31726
1492 1 19.4561 7.86209 5.58769
1503 2 20.9341 6.95838 4.27785
1506 1 22.4254 7.81944 5.50412
1517 2 23.9683 6.94081 4.20863
1516 1 23.9383 8.72027 3.09263
1520 1 25.3559 7.83239 5.51365
1531 2 26.8836 6.97859 4.27659
1534 1 28.3679 7.83453 5.51818
2803 1 1.53725 11.239 3.10242
2807 1 0.0457233 10.4259 5.57281
1406 2 1.53354 9.5595 4.33541
2821 1 3.03216 10.4265 5.57607
2817 1 4.45169 11.262 3.11097
1420 2 4.51699 9.56451 4.3268
2831 1 7.5331 11.3339 3.07164
2835 1 6.01673 10.4338 5.53683
1434 2 7.50577 9.5815 4.30913
2849 1 9.01409 10.4268 5.55636
2845 5 10.4601 11.267 3.10031
1448 2 10.4978 9.57141 4.30262
2863 1 11.9708 10.4157 5.55324
2859 1 13.4765 11.3117 3.1315
1462 2 13.4868 9.56885 4.29807
2877 1 14.9671 10.4171 5.51566
2873 1 16.4488 11.3115 3.13356
1476 2 16.464 9.56838 4.2998
2887 1 19.4858 11.3546 3.07669
2891 1 17.9547 10.4219 5.52348
1490 2 19.4418 9.58792 4.31347
2901 1 22.4298 11.2576 3.07892
2905 1 20.9445 10.3961 5.54949
1504 2 22.4113 9.63176 4.25022
2919 1 23.8814 10.3866 5.57776
2915 1 25.3382 11.2779 3.1207
1518 2 25.3893 9.56466 4.32083
2933 1 26.8782 10.4173 5.55382
2929 1 28.3717 11.3251 3.14781
1532 2 28.3743 9.57399 4.30468
2805 2 0.0475645 12.1502 4.35283
2806 2 1.53786 14.7268 4.33903
2808 1 1.53907 13.0126 5.56785
2804 1 0.0244789 13.8377 3.12331
2819 2 3.02503 12.1479 4.33894
2818 1 3.0107 13.8661 3.14607
2820 2 4.44522 14.6855 4.26358
2822 1 4.54267 13.0363 5.54721
2833 2 6.00449 12.1598 4.31349
2832 1 6.04378 13.9041 3.10644
2834 2 7.56044 14.6952 4.2784
2836 1 7.48396 13.0375 5.54136
2847 2 8.99468 12.1563 4.31625
2846 1 8.96777 13.8645 3.10084
2848 2 10.4841 14.7511 4.32375
2850 1 10.4839 13.0216 5.53498
2861 2 11.9829 12.1513 4.31301
2860 1 11.9713 13.8846 3.14648
2862 2 13.4746 14.7457 4.3344
2864 1 13.4737 13.008 5.52949
2875 2 14.9661 12.1611 4.30953
2874 1 14.9678 13.9552 3.11191
2876 2 16.4646 14.7463 4.35217
2878 1 16.4558 13.0121 5.53846
2888 1 18.0055 13.9137 3.09927
2889 2 17.95 12.1616 4.31835
2890 2 19.4506 14.751 4.36634
2892 1 19.4415 13.0095 5.5697
2903 2 20.9395 12.1619 4.34043
2902 1 20.916 13.8834 3.1486
2904 2 22.4285 14.751 4.37354
2906 1 22.4227 13.003 5.5795
2917 2 23.9042 12.1524 4.34617
2916 1 23.9126 13.9119 3.18366
2918 2 25.4026 14.7495 4.37213
2920 1 25.3992 13.0021 5.56181
2931 2 26.8817 12.1555 4.3354
2930 1 26.8742 13.8886 3.174
2932 2 28.3799 14.7516 4.36242
2934 1 28.3818 13.0092 5.55528
4205 2 0.0345985 17.2901 4.33761
4207 1 0.0231379 15.5866 5.54427
4203 5 1.53451 16.4266 3.15446
4219 2 3.02668 17.2945 4.32327
4221 1 3.05778 15.5848 5.53397
4217 1 4.56123 16.4576 3.11906
4233 2 5.9877 17.3732 4.30577
4235 1 6.02095 15.569 5.50412
4231 1 7.44188 16.4198 3.1694
4249 1 8.95832 15.5949 5.55497
4247 2 8.97268 17.3104 4.34057
4245 1 10.4783 16.5314 3.12787
4259 1 13.5319 16.4785 3.11036
4261 2 11.9921 17.3156 4.35088
4263 1 11.9793 15.602 5.5621
4273 1 16.4912 16.4727 3.11
4275 2 14.9791 17.3264 4.37439
4277 1 14.9645 15.6018 5.60195
4289 2 17.9609 17.3352 4.38023
4291 1 17.9525 15.6044 5.61857
4287 1 19.4144 16.4592 3.16534
4303 2 20.9365 17.333 4.3718
4305 1 20.9332 15.6075 5.60451
4301 1 22.4312 16.4748 3.19814
4317 2 23.9204 17.3314 4.37723
4319 1 23.9214 15.6068 5.60684
4315 1 25.4031 16.4744 3.19656
4331 2 26.8995 17.3321 4.37873
4333 1 26.8967 15.6137 5.60483
4329 1 28.41 16.4526 3.16023
5607 1 0.067844 20.717 5.52457
4206 2 1.43405 19.7946 4.22857
4208 1 1.50249 18.1607 5.50602
5621 1 3.03833 20.7354 5.50412
4218 1 3.06342 19.0238 3.11281
4220 2 4.57461 19.8327 4.28665
4222 1 4.53651 18.1487 5.54155
4232 1 5.96762 19.0006 3.11662
5635 1 5.99113 20.7358 5.53812
4234 2 7.49312 19.8847 4.33812
4236 1 7.47831 18.1403 5.5647
5649 1 8.96959 20.7542 5.5975
4248 2 10.4949 19.8743 4.27785
4250 1 10.4799 18.1505 5.59399
4260 1 12.0732 19.0006 3.06487
5663 1 12.0167 20.7744 5.63862
4262 2 13.4981 19.9052 4.3751
4264 1 13.475 18.1813 5.61146
4274 1 14.986 19.0117 3.13601
4288 1 17.9072 19.0953 3.14006
5677 1 14.9954 20.8033 5.58169
4276 2 16.4651 19.9327 4.38265
4278 1 16.4661 18.1941 5.60384
5691 1 17.9347 20.8094 5.63015
4290 2 19.436 19.9167 4.38663
4292 1 19.4431 18.1873 5.60823
5705 1 20.9255 20.7785 5.61476
4302 1 20.931 19.1037 3.16589
4304 2 22.4325 19.9136 4.38123
4306 1 22.4285 18.1909 5.58501
5719 1 23.9229 20.7886 5.64201
4316 1 23.9284 19.0958 3.16534
4318 2 25.4093 19.9135 4.37942
4320 1 25.4107 18.1923 5.60838
5733 1 26.9497 20.7719 5.57336
4330 1 26.9024 19.0405 3.18361
4332 2 28.3376 19.8742 4.31336
4334 1 28.4079 18.2219 5.58549
5605 2 0.0604871 22.4321 4.28674
5603 1 1.59009 21.5291 3.11884
5608 1 1.56568 23.2719 5.51028
5619 2 3.03652 22.5245 4.26144
5617 1 4.46103 21.5644 3.15726
5622 1 4.52544 23.2917 5.55461
5631 1 7.56892 21.6358 3.10047
5633 2 6.02092 22.4567 4.33275
5636 1 7.51517 23.3276 5.59789
5645 1 10.5192 21.6403 3.09821
5647 2 9.01538 22.4828 4.36407
5650 1 10.5063 23.338 5.60734
5661 2 11.9997 22.494 4.37992
5659 1 13.4296 21.6049 3.15067
5664 1 13.5306 23.3421 5.58503
5675 2 14.9062 22.4513 4.29607
5673 1 16.5131 21.6477 3.1957
5678 1 16.4601 23.3186 5.50412
5687 1 19.4432 21.6402 3.11176
5689 2 18.0149 22.473 4.32831
5692 1 19.4165 23.354 5.61075
5701 1 22.4314 21.5925 3.14595
5703 2 20.9376 22.5031 4.38765
5706 1 22.4467 23.345 5.614
5717 2 23.9211 22.4943 4.37996
5715 1 25.358 21.6036 3.16104
5720 1 25.4104 23.3374 5.6015
5731 2 26.9073 22.4883 4.36043
5729 1 28.39 21.6121 3.20585
5734 1 28.4186 23.3148 5.59353
7003 1 1.56943 26.7415 3.07041
7007 1 0.0633781 25.8831 5.54294
5604 1 0.050433 24.2172 3.08524
5606 2 1.55297 25.0213 4.3155
7017 1 4.54852 26.742 3.08353
7021 1 3.04521 25.8873 5.55575
5618 1 3.05192 24.2257 3.09815
5620 2 4.54476 25.0275 4.33561
5632 1 6.08934 24.2007 3.09579
7031 1 7.49298 26.7979 3.11748
7035 1 6.02665 25.8992 5.57403
5634 2 7.53092 25.0507 4.35491
7049 1 9.0164 25.913 5.57758
5646 1 8.99444 24.1785 3.15567
7045 1 10.5258 26.8527 3.15361
5648 2 10.5125 25.0653 4.36694
7063 1 11.9988 25.9185 5.59328
5660 5 11.9962 24.2128 3.20128
7059 1 13.5511 26.7426 3.16753
5662 2 13.5051 25.0582 4.38209
7073 1 16.4776 26.7977 3.12814
7077 1 15.0013 25.8918 5.61792
5674 1 15.0035 24.2497 3.1866
5676 2 16.4793 25.1374 4.33153
7087 1 19.4201 26.8364 3.157
5688 1 17.9919 24.2525 3.16952
7091 1 17.9495 25.8981 5.64191
5690 2 19.4481 25.0782 4.39748
5702 1 20.8908 24.1873 3.18185
7105 1 20.9462 25.9384 5.61261
7101 5 22.4892 26.7688 3.17982
5704 2 22.4354 25.0748 4.38543
7115 1 25.4348 26.8186 3.1257
7119 1 23.9297 25.9457 5.62813
5716 1 23.9252 24.2798 3.1715
5718 2 25.4196 25.0703 4.37775
7129 1 28.3976 26.7716 3.11992
7133 1 26.9141 25.9136 5.6026
5730 1 26.9049 24.2589 3.15564
5732 2 28.4027 25.0502 4.37115
7005 2 0.0742803 27.6136 4.32011
7008 1 1.55364 28.4893 5.56372
7018 1 3.05687 29.2928 3.06913
7019 2 3.05135 27.6183 4.33662
7022 1 4.53221 28.4992 5.58165
7032 1 6.01238 29.3093 3.09842
7033 2 6.02669 27.6302 4.35345
7036 1 7.51531 28.5056 5.59567
7046 1 8.99394 29.3601 3.10262
7047 2 9.01499 27.6419 4.36673
7050 1 10.4966 28.5047 5.62139
7060 1 11.953 29.3882 3.14395
7061 2 12.0027 27.6467 4.37289
7064 1 13.4879 28.4973 5.59907
7074 1 15.0206 29.3819 3.15824
7075 2 14.9819 27.6376 4.3935
7078 1 16.4671 28.4998 5.62861
7088 1 17.9537 29.3869 3.15498
7102 1 20.889 29.3942 3.15234
7089 2 17.9605 27.649 4.41004
7092 1 19.4453 28.5022 5.63814
7103 2 20.9513 27.6552 4.38634
7106 1 22.4394 28.5253 5.62664
7116 1 23.9759 29.3894 3.16791
7117 2 23.9294 27.6585 4.38736
7120 1 25.4486 28.5138 5.57229
7131 2 26.9236 27.5493 4.43067
7130 1 26.8993 29.346 3.092
7134 1 28.3995 28.5045 5.57933
11 1 0.126729 1.78609 8.04373
13 3 0.0926203 0.0840185 9.01492
9 2 1.57312 0.935324 6.78564
14 3 1.59796 2.64992 9.012
25 1 3.07635 1.84157 8.01072
27 7 3.03833 0.0698738 8.97177
23 2 4.54962 0.921893 6.74701
28 3 4.58189 2.64189 8.98033
41 7 5.96548 0.0907538 9.00946
39 1 6.00439 1.73598 7.97719
37 2 7.51993 1.00626 6.67833
42 7 7.51227 2.65306 8.97177
53 1 8.99726 1.7045 7.92527
55 3 9.07327 0.0730418 8.96087
51 2 10.4924 0.919418 6.70503
56 7 10.4949 2.65306 8.97177
67 1 12.022 1.7092 7.96886
69 7 11.9834 0.0290618 8.934
65 2 13.486 0.914882 6.69369
70 3 13.4879 2.59484 8.92228
81 1 14.9608 1.74393 7.94942
83 3 14.9579 0.0392632 8.92292
79 2 16.4861 0.928889 6.71429
84 7 16.4601 2.65306 8.97177
95 1 18.0377 1.82496 7.93125
97 7 17.9515 0.0698738 8.97177
93 2 19.4717 0.934359 6.70496
98 3 19.4997 2.63728 8.93776
109 1 20.9256 1.79059 7.91177
111 7 20.9341 0.0698738 8.97177
107 2 22.4555 0.902436 6.6674
112 3 22.4254 2.65306 8.97177
123 1 23.9244 1.74232 7.85913
125 7 23.9167 0.0698738 8.97177
121 2 25.3388 0.937145 6.70413
126 7 25.408 2.65306 8.97177
137 5 26.8855 1.73372 7.82786
139 7 26.8993 0.0698738 8.97177
135 2 28.4285 0.954735 6.71048
140 7 28.3907 2.65306 8.97177
1413 7 0.0557015 5.23625 8.97177
10 2 0.0609983 3.52196 6.79979
12 1 1.55398 4.32253 8.00749
1427 7 3.03833 5.23625 8.97177
24 2 3.05501 3.52643 6.78007
26 1 4.60653 4.35347 8.01967
1441 7 6.05864 5.24811 8.98894
38 2 6.03934 3.51735 6.76473
40 1 7.53965 4.43958 7.99327
1455 3 9.00044 5.30072 8.97758
52 2 9.00251 3.52686 6.75122
54 1 10.4046 4.43893 7.98354
1469 7 11.9862 5.23625 8.97177
66 2 11.9862 3.51412 6.73038
68 1 13.5385 4.30019 7.97243
1483 3 14.9688 5.23625 8.97177
80 2 14.9946 3.50264 6.72059
82 1 16.4722 4.37621 7.91212
1497 7 17.9515 5.23625 8.97177
94 2 17.9753 3.52272 6.73203
96 1 19.5174 4.35057 7.98525
1511 3 20.9826 5.21714 8.96111
108 2 20.9643 3.52407 6.715
110 1 22.4695 4.40473 7.9739
1525 3 23.9499 5.25981 8.93899
122 2 23.9323 3.50237 6.7005
124 1 25.4063 4.39718 7.94731
1539 7 26.8793 5.23662 8.93639
136 2 26.885 3.48966 6.69303
138 1 28.3469 4.38432 7.95007
1553 3 29.8115 5.2168 8.95207
1411 1 0.100284 6.98392 8.00706
1410 2 0.0467506 8.69362 6.79796
1409 2 1.5483 6.11097 6.79187
1414 3 1.53414 7.83796 9.01494
1425 1 2.98498 7.01404 8.00196
1424 2 3.03559 8.70352 6.78637
1423 2 4.52913 6.10831 6.78197
1428 7 4.52964 7.81944 8.97177
1439 5 6.01383 6.91922 7.98037
1438 6 6.02004 8.70243 6.77069
1437 2 7.51718 6.11927 6.75274
1442 7 7.51227 7.81944 8.97177
1452 2 8.93575 8.66299 6.69566
1453 1 9.0634 6.98111 7.96973
1451 2 10.5005 6.12427 6.73036
1456 3 10.5246 7.74818 8.99153
1467 1 11.9617 7.00646 7.93289
1466 2 12.0752 8.65023 6.69823
1465 2 13.4859 6.08878 6.74635
1470 3 13.4775 7.81944 8.97177
1481 1 14.9662 6.9285 7.92902
1480 2 14.9793 8.68484 6.76112
1479 2 16.4666 6.09626 6.74109
1484 7 16.4601 7.81944 8.97177
1495 5 17.947 6.94887 7.93488
1494 2 17.9592 8.68037 6.75925
1493 2 19.4571 6.09976 6.7644
1498 7 19.4428 7.81944 8.97177
1508 2 20.8444 8.73497 6.85404
1509 1 20.9474 6.89267 7.95987
1507 2 22.4354 6.02737 6.79707
1512 7 22.4254 7.81944 8.97177
1523 1 23.9336 6.94808 7.94312
1522 2 23.9499 8.71505 6.82991
1521 2 25.3933 6.09852 6.70812
1526 3 25.3911 7.77202 8.96376
1537 1 26.8871 6.9564 7.97968
1536 2 26.8796 8.68165 6.75326
1535 2 28.3677 6.08957 6.72016
1540 3 28.3745 7.78616 8.97046
1551 1 29.8286 6.91897 7.98206
2813 3 0.0432766 10.4084 9.02353
2809 2 1.54842 11.2816 6.79639
1412 1 1.50255 9.53869 8.04126
2827 7 3.03833 10.4026 8.97177
2823 6 4.53209 11.2884 6.77054
1426 5 4.54998 9.56383 7.95083
2841 7 6.02095 10.4026 8.97177
2837 2 7.50947 11.2852 6.75628
1440 5 7.56894 9.57399 7.95181
2855 7 8.92264 10.4641 9.00648
2851 2 10.4902 11.3886 6.70425
1454 1 10.4949 9.54156 7.91623
2869 7 11.9862 10.4026 8.97177
2865 2 13.4666 11.2712 6.75336
1468 1 13.5264 9.55988 7.95858
2883 3 14.9616 10.4092 8.97694
2879 2 16.4529 11.2766 6.75849
1482 1 16.4567 9.58712 8.00831
2897 3 17.9266 10.4279 9.00165
2893 2 19.4353 11.2778 6.77316
1496 1 19.4073 9.5849 8.02493
2911 3 20.8882 10.413 9.00656
2907 2 22.4123 11.2699 6.79791
1510 1 22.3261 9.56815 7.98796
2925 7 23.9167 10.4026 8.97177
2921 2 25.3961 11.2654 6.79169
1524 1 25.3847 9.46646 7.99359
2939 7 26.8993 10.4026 8.97177
2935 2 28.3718 11.2653 6.77957
1538 1 28.4336 9.50009 8.01338
2811 1 0.070926 12.083 8.02075
2810 2 0.0483065 13.8715 6.79783
2812 1 1.52557 14.7766 8.01949
2814 7 1.54701 12.9858 8.97177
2825 5 3.0577 12.1423 7.95572
2824 2 3.03434 13.8696 6.77322
2826 1 4.46952 14.7588 7.97059
2828 7 4.52964 12.9858 8.97177
2839 1 6.05297 12.1608 7.99295
2838 2 6.01076 13.7965 6.83494
2840 1 7.48284 14.6636 7.97147
2842 3 7.5181 12.99 8.97691
2853 1 8.96797 12.1156 7.98754
2852 2 8.98043 13.8713 6.76617
2854 1 10.4712 14.7232 7.94841
2856 3 10.4949 12.9858 8.97177
2867 1 12.0014 12.1507 7.95808
2866 2 11.9751 13.8666 6.77178
2868 1 13.4484 14.6611 8.00861
2870 3 13.4465 12.9696 8.98354
2881 1 14.947 12.1306 8.02326
2880 2 14.9571 13.8616 6.78746
2882 1 16.4469 14.6516 8.02785
2884 7 16.4348 12.9642 9.00953
2895 1 17.9323 12.1395 8.03216
2894 2 17.9469 13.8645 6.80374
2896 1 19.4504 14.6591 8.0407
2898 3 19.4247 12.9656 9.01516
2909 1 20.8922 12.1127 8.03175
2908 2 20.9351 13.8635 6.81068
2910 1 22.4257 14.7244 7.99491
2912 7 22.4254 12.9858 8.97177
2923 1 23.9752 12.1542 8.0153
2922 2 23.9165 13.8644 6.80954
2924 1 25.3995 14.6816 8.03009
2926 3 25.4192 13.0006 9.01979
2937 1 26.8896 12.1674 8.0276
2936 2 26.8929 13.8672 6.80439
2938 1 28.3874 14.6611 8.03052
2940 3 28.373 12.9797 9.02067
4213 3 0.0417289 15.6196 8.98961
4209 2 1.53032 16.4438 6.75682
4225 1 3.03094 17.2147 8.0045
4227 3 3.02418 15.5712 9.00185
4223 2 4.46327 16.4611 6.8099
4239 1 6.01447 17.2646 7.91914
4241 3 6.02095 15.569 8.97177
4237 2 7.56467 16.4704 6.83754
4253 1 9.02096 17.3121 8.00682
4255 7 9.00358 15.569 8.97177
4251 2 10.4767 16.458 6.77809
4267 1 11.9193 17.3377 8.02704
4269 3 11.9862 15.569 8.97177
4265 2 13.4654 16.4511 6.82675
4281 1 15.0038 17.3246 8.04058
4283 7 14.9688 15.569 8.97177
4279 2 16.457 16.4556 6.83601
4295 1 17.8996 17.3498 8.05657
4297 3 17.9515 15.569 8.97177
4293 2 19.4421 16.4594 6.84994
4309 1 20.9804 17.3498 8.0497
4311 3 20.9341 15.569 8.97177
4307 2 22.4282 16.4654 6.8281
4323 1 23.8806 17.3604 8.04552
4325 7 23.9167 15.569 8.97177
4321 2 25.4114 16.4695 6.84192
4351 1 29.8365 17.3395 8.05052
4337 1 26.9541 17.3602 8.03963
4339 7 26.8993 15.569 8.97177
4335 2 28.3894 16.4678 6.82945
5613 7 0.0557015 20.7354 8.97177
4210 2 0.0387709 19.0092 6.73655
4212 1 1.60659 19.9222 7.91039
4214 7 1.54701 18.1522 8.97177
5627 3 3.0295 20.7448 8.95412
4224 2 3.03833 19.0133 6.73038
4226 1 4.56477 19.9623 8.01942
4228 7 4.52964 18.1522 8.97177
5641 3 6.0116 20.7663 9.02593
4238 2 6.00558 19.0124 6.77336
4240 1 7.4761 19.9152 8.03528
4242 7 7.51227 18.1522 8.97177
5655 3 8.9608 20.7227 9.0297
4252 2 8.97373 19.0173 6.80563
4254 1 10.4344 19.8609 8.0634
4256 3 10.4546 18.1544 9.0272
5669 3 11.9862 20.7354 8.97177
4266 2 11.9804 19.0364 6.83459
4268 1 13.522 19.923 8.03332
4270 7 13.4775 18.1522 8.97177
5683 3 14.9568 20.7677 9.04744
4280 2 14.9688 19.0453 6.8242
4282 1 16.4236 19.889 8.08514
4284 3 16.4375 18.1805 9.04907
5697 7 17.9515 20.7354 8.97177
4294 2 17.9521 19.056 6.83561
4296 1 19.4421 19.912 8.01167
4298 3 19.4428 18.1522 8.97177
5711 3 20.9341 20.7354 8.97177
4308 2 20.9354 19.0469 6.83126
4310 1 22.4307 19.8732 8.02929
4312 3 22.4294 18.2039 9.0391
5725 7 23.9167 20.7354 8.97177
4322 2 23.9236 19.0597 6.83089
4324 1 25.4684 19.9709 8.01811
4326 7 25.408 18.1522 8.97177
5739 3 26.9228 20.7817 9.031
4336 2 26.9138 19.0595 6.81745
4338 1 28.4107 19.9399 8.04793
4340 3 28.3977 18.2283 9.0254
5611 1 0.0669579 22.4792 7.99183
5609 2 1.47827 21.6327 6.79957
5614 7 1.55007 23.2938 8.98316
5625 1 2.98862 22.4309 7.96351
5623 2 4.60836 21.6442 6.83829
5628 7 4.52964 23.3186 8.97177
5639 1 6.02848 22.4273 8.00549
5637 2 7.51544 21.594 6.78881
5642 7 7.51227 23.3186 8.97177
5653 1 9.01541 22.3982 8.02974
5651 2 10.5007 21.6093 6.83486
5656 7 10.4949 23.3186 8.97177
5667 1 12.0472 22.5077 8.03432
5665 2 13.4884 21.6205 6.81242
5670 7 13.5086 23.317 9.04215
5681 1 14.9639 22.4555 8.04609
5679 2 16.4706 21.5582 6.9108
5684 7 16.4601 23.3186 8.97177
5695 1 18.0188 22.5393 8.04504
5693 2 19.4428 21.6435 6.83909
5698 3 19.4814 23.3525 9.05104
5709 1 20.9627 22.5355 8.05958
5707 2 22.3441 21.5826 6.78064
5712 7 22.3669 23.4042 9.08016
5723 5 23.9167 22.4575 7.91623
5721 2 25.51 21.5853 6.75089
5726 7 25.5027 23.3659 9.08769
5737 1 26.8678 22.4693 8.0378
5735 2 28.3398 21.6831 6.88244
5740 7 28.3907 23.3186 8.97177
7013 3 0.0652366 25.853 8.98819
5610 2 0.0666539 24.1604 6.7555
7009 2 1.54795 26.7476 6.77967
5612 1 1.56849 25.0171 8.02937
7027 3 3.04356 25.8893 9.00316
5624 2 3.04881 24.1601 6.76547
7023 2 4.53097 26.767 6.79601
5626 1 4.54677 25.0838 8.03368
7041 3 6.01683 25.93 9.02103
5638 2 6.02449 24.1838 6.80276
7037 2 7.5131 26.7804 6.81209
5640 1 7.51559 25.1011 8.06164
7055 3 8.9939 25.9394 9.04341
5652 2 9.00902 24.1899 6.83101
7051 2 10.4971 26.7844 6.82911
5654 1 10.4879 25.1116 8.07688
7069 3 11.9907 25.9146 9.05477
5666 2 11.9974 24.1961 6.82362
7065 2 13.4906 26.7751 6.82849
5668 1 13.48 25.0466 8.09834
5680 2 14.9233 24.2305 6.89464
7083 3 14.9655 25.914 9.05923
7079 2 16.4695 26.7744 6.85193
5682 1 16.4072 25.074 8.04415
7097 7 17.9515 25.9018 8.97177
5694 2 18.0262 24.2465 6.91156
7093 2 19.4558 26.7868 6.85901
5696 1 19.4656 25.0371 8.06851
7111 3 20.9341 25.9018 8.97177
5708 2 20.9512 24.2156 6.82829
7107 2 22.4386 26.8075 6.84431
5710 1 22.4567 25.0249 8.03023
7125 7 23.9167 25.9018 8.97177
5722 2 23.929 24.2906 6.77788
7121 2 25.4183 26.7908 6.84006
5724 1 25.4466 25.014 8.06105
7139 3 26.8908 25.9062 9.04119
5736 2 26.9152 24.1978 6.81641
7135 2 28.4125 26.7908 6.82928
5738 1 28.3587 25.1032 8.03638
7011 1 0.0379246 27.5363 7.99673
7010 2 0.0596417 29.3503 6.76708
7014 7 1.54701 28.4849 8.97177
7025 1 3.02625 27.5656 8.00423
7024 2 3.02704 29.3583 6.78499
7028 7 4.52964 28.4849 8.97177
7039 1 6.0109 27.6032 8.01912
7038 2 6.0084 29.3676 6.80937
7042 7 7.51227 28.4849 8.97177
7053 1 8.99451 27.6076 8.03437
7052 2 8.99729 29.3679 6.83427
7056 3 10.4949 28.4849 8.97177
7067 1 12.0299 27.6113 8.07307
7066 2 11.9836 29.3556 6.84786
7070 7 13.4763 28.4799 9.07204
7081 1 14.9755 27.6396 8.10826
7080 2 14.9763 29.3638 6.85677
7084 3 16.462 28.4962 9.07542
7095 1 17.9246 27.6745 8.07806
7094 2 17.9631 29.3714 6.87297
7098 7 19.4428 28.4849 8.97177
7108 6 20.8811 29.3225 6.79057
7109 1 20.9591 27.6663 8.00567
7112 7 22.4254 28.4849 8.97177
7123 1 23.9738 27.7323 8.03167
7122 2 24.0427 29.3261 6.76617
7126 3 25.443 28.5201 9.04397
7136 2 26.9337 29.3627 6.81304
7137 1 26.8775 27.609 8.06649
7140 7 28.3907 28.4849 8.97177
8401 7 0.0557015 31.0681 2.03646
8415 7 3.03833 31.0681 2.03646
8429 7 6.02095 31.0681 2.03646
8443 3 9.06393 31.0881 2.15942
8457 7 12.0013 31.0867 2.16393
8471 3 14.9781 31.0796 2.18118
8485 7 17.9534 31.102 2.18762
8499 3 20.9081 31.0955 2.17233
8513 3 23.9166 31.0727 2.16743
8527 3 26.8529 31.1585 2.09783
8402 3 1.56892 33.6725 2.05431
8404 1 0.0752785 34.5528 2.98836
8416 7 4.52964 33.6513 2.03646
8430 7 7.51227 33.6513 2.03646
8444 3 10.4945 33.6326 2.11989
8458 7 13.4775 33.6513 2.03646
8472 7 16.4601 33.6513 2.03646
8486 3 19.3795 33.6385 2.13591
8500 3 22.4303 33.6012 2.12887
8514 7 25.408 33.6513 2.03646
8528 3 28.3948 33.6094 2.10243
9801 3 0.0913519 36.283 2.04123
9802 7 1.66627 38.7804 1.99716
9803 1 1.53052 37.153 3.04713
9815 7 3.03833 36.2345 2.03646
9816 3 4.56608 38.8295 2.06759
9817 1 4.623 37.1298 3.04274
9829 3 6.08693 36.243 2.0824
9830 7 7.51227 38.8177 2.03646
9843 3 9.07578 36.2121 2.11723
9844 3 10.5419 38.7934 2.12448
9857 3 12.0012 36.3313 2.09065
9858 3 13.4904 38.768 2.13138
9871 7 14.9688 36.2345 2.03646
9872 3 16.4768 38.7929 2.13519
9885 3 18.0111 36.2295 2.1545
9886 7 19.4428 38.8177 2.03646
9899 3 20.9307 36.2562 2.1471
9900 7 22.4254 38.8177 2.03646
9913 7 23.9167 36.2345 2.03646
9914 7 25.4389 38.8911 2.14468
9927 7 26.8993 36.2345 2.03646
9928 7 28.3907 38.8177 2.03646
11201 3 0.106111 41.4556 2.04037
11215 7 3.03833 41.4009 2.03646
9818 1 3.06452 39.6479 3.03067
11229 7 6.02095 41.4009 2.03646
11243 3 9.00358 41.4009 2.03646
11257 7 11.9862 41.4009 2.03646
11271 7 14.9688 41.4009 2.03646
11285 7 17.9515 41.4009 2.03646
11299 3 20.9667 41.4468 2.1308
11313 3 23.9692 41.3917 2.13293
11327 7 26.8993 41.4009 2.03646
11202 7 1.54701 43.9841 2.03646
11203 1 1.54207 42.2581 3.05586
11216 7 4.52964 43.9841 2.03646
11230 7 7.51227 43.9841 2.03646
11244 7 10.4949 43.9841 2.03646
11258 3 13.5061 44.0205 2.1088
11272 7 16.4601 43.9841 2.03646
11286 3 19.4954 44.03 2.12792
11300 7 22.4254 43.9841 2.03646
11314 7 25.408 43.9841 2.03646
11328 7 28.3907 43.9841 2.03646
12601 7 0.0557015 46.5673 2.03646
12603 1 1.62027 47.4421 3.06296
12615 3 3.10097 46.6327 2.08339
12629 7 6.02095 46.5673 2.03646
12643 7 9.00358 46.5673 2.03646
12657 3 12.0384 46.5817 2.09986
12671 7 14.9688 46.5673 2.03646
12685 3 18.0011 46.5416 2.11874
12699 3 20.9332 46.5796 2.11243
12713 7 23.9167 46.5673 2.03646
12727 3 26.9472 46.5783 2.11818
12729 1 28.4302 47.4635 3.06414
12602 7 1.54701 49.1505 2.03646
12616 3 4.56357 49.1478 2.10481
12630 3 7.50382 49.1414 2.10756
12644 7 10.4949 49.1505 2.03646
12658 7 13.4775 49.1505 2.03646
12672 7 16.4601 49.1505 2.03646
12686 7 19.4428 49.1505 2.03646
12700 3 22.4283 49.171 2.09624
12714 7 25.408 49.1505 2.03646
12728 3 28.4121 49.196 2.11592
14001 7 0.0557015 51.7336 2.03646
14015 3 3.03833 51.7336 2.03646
14029 7 6.02095 51.7336 2.03646
14043 7 9.00358 51.7336 2.03646
14057 3 12.0062 51.7792 2.13175
14071 7 14.9688 51.7336 2.03646
14085 3 17.9275 51.7724 2.10898
14099 7 20.9341 51.7336 2.03646
14113 3 23.9661 51.7407 2.10452
14127 7 26.8413 51.6955 2.06163
15401 7 0.143227 56.8764 2.05051
14002 7 1.54701 54.3168 2.03646
14016 3 4.54231 54.3715 2.10622
15429 3 5.97662 56.9105 2.11719
14030 7 7.51227 54.3168 2.03646
14044 7 10.4949 54.3168 2.03646
15457 7 11.9862 56.9 2.03646
14058 7 13.4775 54.3168 2.03646
15471 7 14.9688 56.9 2.03646
14072 3 16.4601 54.3168 2.03646
15485 7 17.9515 56.9 2.03646
14086 7 19.4428 54.3168 2.03646
15499 7 20.9341 56.9 2.03646
14100 3 22.4254 54.3168 2.03646
15513 7 23.9167 56.9 2.03646
14114 7 25.408 54.3168 2.03646
15527 3 26.9327 56.8951 2.08967
14128 3 28.4135 54.4267 2.05503
15402 3 1.52852 59.4535 2.11873
15415 3 3.01158 56.9689 2.10575
15416 7 4.52964 59.4832 2.03646
15430 3 7.52075 59.5116 2.13648
15443 3 8.98484 56.9592 2.11355
15444 3 10.4519 59.5409 2.12149
15458 7 13.4775 59.4832 2.03646
15472 7 16.4601 59.4832 2.03646
15486 3 19.4617 59.4812 2.0828
15500 3 22.4411 59.4841 2.0808
15514 3 25.4398 59.477 2.07155
15515 1 25.4651 57.7743 3.04981
15528 3 28.382 59.4758 2.06992
8405 2 0.0743138 32.8145 4.26889
8407 1 0.0655241 31.0771 5.49053
8403 1 1.57708 32.0034 3.06535
7006 2 1.56565 30.2125 4.2884
8419 2 3.05634 32.8098 4.29356
8421 1 3.04098 31.0788 5.51284
8417 1 4.57299 31.9466 3.13999
7020 2 4.53928 30.2174 4.32239
8433 2 6.04235 32.8081 4.32113
8435 1 6.02085 31.0851 5.56418
8431 1 7.59194 31.9179 3.13726
7034 2 7.51798 30.2245 4.35571
8445 1 10.5329 31.9681 3.1355
8447 2 9.03024 32.8083 4.3695
8449 1 9.01215 31.0881 5.61293
7048 2 10.4991 30.2252 4.38467
8459 1 13.4841 31.8994 3.16045
8461 2 12.0071 32.7022 4.45427
8463 1 11.9972 31.0757 5.62241