ITEM: TIMESTEP
0
ITEM: NUMBER OF ATOMS
81200
ITEM: BOX BOUNDS pp pp pp
-4.3387519758237632e-02 2.9834288341578355e+02
-6.6091896531148192e-02 2.9971380387069894e+02
0.0000000000000000e+00 4.9031656433928198e+01
ITEM: ATOMS id type x y z
2 3 1.46852 2.60101 2.11064
15 7 2.97777 0.00487838 2.03646
16 3 4.45226 2.60628 2.09545
29 7 5.96164 0.00487838 2.03646
30 3 7.45685 2.59342 2.08171
31 1 7.48755 0.89412 3.06086
43 3 8.94965 0.0551196 2.05798
44 3 10.3958 2.59962 2.05817
45 1 10.409 0.908909 3.04763
57 7 11.9294 0.00487838 2.03646
58 7 13.4213 2.58919 2.03646
59 1 13.4841 0.834206 3.03773
71 3 14.9462 0.0144103 2.03755
72 7 16.4052 2.58919 2.03646
73 1 16.3716 0.865608 3.05918
85 7 17.8971 0.00487838 2.03646
86 3 19.3774 2.67087 2.03764
87 1 19.3936 0.989336 3.03557
99 7 20.8809 0.00487838 2.03646
100 7 22.3729 2.58919 2.03646
101 1 22.4153 0.875841 3.05338
113 3 23.8649 0.166678 1.98814
114 3 25.338 2.61497 1.99033
115 1 25.3233 0.960554 2.99425
127 7 26.8487 0.00487838 2.03646
128 7 28.3406 2.58919 2.03646
129 1 28.3669 0.858395 3.02211
1401 7 -0.00608916 5.1735 2.03646
1415 7 2.97777 5.1735 2.03646
1429 3 5.94345 5.18836 2.09284
32 1 5.96088 3.45891 3.03511
1443 7 8.9455 5.1735 2.03646
46 1 8.93357 3.4369 3.05845
60 1 11.8566 3.43503 3.05069
1457 7 11.9294 5.1735 2.03646
1471 7 14.9132 5.1735 2.03646
1485 3 17.9104 5.21791 2.04955
88 1 17.9182 3.51845 3.03401
102 1 20.815 3.5087 3.02752
1499 3 20.8744 5.24026 2.10831
1513 7 23.8648 5.1735 2.03646
116 1 23.9424 3.45301 3.01415
130 1 26.7866 3.44567 3.00062
1527 7 26.8487 5.1735 2.03646
1402 7 1.48584 7.75781 2.03646
1416 7 4.4697 7.75781 2.03646
1430 7 7.45357 7.75781 2.03646
1444 7 10.4374 7.75781 2.03646
1458 3 13.4292 7.76433 2.07103
1472 3 16.4005 7.7403 2.05284
1474 1 14.9244 8.587 3.03529
1473 1 16.4411 6.05295 3.04875
1488 1 17.8344 8.58653 3.04393
1486 3 19.3945 7.8225 2.13566
1487 1 19.3538 6.07218 3.03751
1500 7 22.3729 7.75781 2.03646
1502 1 20.8765 8.71945 3.05589
1514 3 25.3387 7.83099 2.06621
1515 1 25.3244 6.13598 3.0332
1528 3 28.3351 7.77727 2.05236
1530 1 26.8531 8.60882 3.03856
1529 1 28.3598 6.07624 3.02468
2801 3 -0.025859 10.4001 2.14961
2815 3 2.97331 10.339 2.09222
2829 7 5.96164 10.3421 2.03646
2843 3 8.93157 10.4035 2.09531
2857 7 11.9294 10.3421 2.03646
2871 7 14.9132 10.3421 2.03646
2885 7 17.8971 10.3421 2.03646
2887 1 19.4339 11.3466 3.02722
2899 3 20.8747 10.3981 2.09088
2913 3 23.8539 10.3584 2.09959
2927 7 26.8487 10.3421 2.03646
2802 7 1.48584 12.9264 2.03646
2816 7 4.4697 12.9264 2.03646
2830 3 7.43786 12.9879 2.11017
2844 7 10.4374 12.9264 2.03646
2858 7 13.4213 12.9264 2.03646
2872 7 16.4052 12.9264 2.03646
2886 3 19.4282 13.0402 2.08597
2900 7 22.3729 12.9264 2.03646
2914 7 25.3567 12.9264 2.03646
2928 7 28.3406 12.9264 2.03646
4201 7 -0.00608916 15.5107 2.03646
4215 7 2.97777 15.5107 2.03646
4229 3 5.95309 15.5459 2.12761
4243 7 8.9455 15.5107 2.03646
4257 7 11.9294 15.5107 2.03646
4271 3 14.9453 15.5847 2.11894
4285 3 17.924 15.5742 2.13
4299 7 20.8809 15.5107 2.03646
4313 7 23.8648 15.5107 2.03646
4327 7 26.8487 15.5107 2.03646
5601 7 -0.00608916 20.6794 2.03646
4202 7 1.48584 18.095 2.03646
5615 3 2.9877 20.6585 2.12522
4216 3 4.45443 18.0966 2.12941
5629 7 5.96164 20.6794 2.03646
4230 7 7.45357 18.095 2.03646
4246 1 8.894 18.9715 3.06069
5643 3 8.98837 20.7053 2.15329
4244 3 10.4421 18.1761 2.16345
5657 3 11.9246 20.6893 2.15749
4258 3 13.4907 18.1075 2.10336
4260 1 12.014 18.945 3.06197
5671 7 14.9132 20.6794 2.03646
4272 3 16.4122 18.1407 2.14682
5685 3 17.8768 20.7432 2.16247
4286 7 19.389 18.095 2.03646
5699 3 20.8838 20.7236 2.16183
4300 7 22.3729 18.095 2.03646
5713 3 23.8492 20.7097 2.15537
4314 7 25.3567 18.095 2.03646
5727 7 26.8487 20.6794 2.03646
4328 7 28.3406 18.095 2.03646
5602 7 1.48584 23.2637 2.03646
5616 7 4.4697 23.2637 2.03646
5630 3 7.50275 23.2873 2.13075
5644 7 10.4374 23.2637 2.03646
5658 7 13.4213 23.2637 2.03646
5672 7 16.4052 23.2637 2.03646
5686 3 19.3763 23.3194 2.17271
5700 7 22.3729 23.2637 2.03646
5714 7 25.3567 23.2637 2.03646
5728 7 28.3406 23.2637 2.03646
7001 3 0.0216223 25.8496 2.09864
7015 3 3.00185 25.852 2.10401
7029 3 5.99292 25.8552 2.1279
7043 7 8.9455 25.848 2.03646
7057 7 11.9294 25.848 2.03646
7071 3 14.9487 25.8591 2.16805
7085 3 17.9191 25.8926 2.17649
7099 7 20.8809 25.848 2.03646
7113 3 23.8803 25.8982 2.16864
7127 3 26.8211 25.8697 2.13129
7002 3 1.52051 28.3957 2.09418
7016 3 4.48783 28.3996 2.11352
7030 3 7.44916 28.4389 2.13422
7044 3 10.4411 28.4717 2.14996
7058 7 13.4213 28.4323 2.03646
7072 3 16.4281 28.4697 2.17583
7086 3 19.3693 28.4809 2.17406
7100 7 22.3729 28.4323 2.03646
7114 3 25.2909 28.4392 2.1292
7128 3 28.441 28.3648 2.10195
3 1 1.42075 0.901703 3.08563
5 2 -0.0122155 1.75346 4.35345
7 1 0.00684135 0.0655537 5.55803
8 1 1.49378 2.61328 5.56606
19 2 2.97668 1.74138 4.32217
21 1 2.98626 0.0159031 5.5446
17 1 4.4649 0.936444 3.1042
22 1 4.47808 2.60531 5.54427
33 2 5.96175 1.73611 4.30566
35 1 5.98612 0.00125277 5.5285
36 1 7.45371 2.61165 5.54443
47 2 8.95304 1.74464 4.30775
49 1 8.93373 -0.00576329 5.52599
50 1 10.4128 2.5923 5.5131
61 2 11.9279 1.73183 4.25449
63 1 11.9268 0.00708259 5.46686
64 1 13.445 2.58176 5.45678
75 2 14.9104 1.74213 4.27398
77 1 14.9218 0.01003 5.49355
78 1 16.4175 2.59871 5.50727
89 2 17.9028 1.75735 4.26345
91 1 17.9186 0.0167875 5.49111
92 1 19.4014 2.61478 5.49702
103 2 20.8862 1.76987 4.25563
105 1 20.9007 0.0144896 5.4676
106 1 22.3849 2.58207 5.50493
117 2 23.8696 1.74825 4.25423
119 1 23.8403 -0.0214933 5.45423
120 1 25.3642 2.56263 5.47406
131 2 26.8313 1.81852 4.15137
133 5 26.8487 0.00487838 5.50412
134 1 28.3068 2.56686 5.43823
147 1 29.7818 0.0293813 5.42237
1407 1 -0.00980652 5.20188 5.57521
4 1 0.04614 3.4599 3.13433
6 2 1.48698 4.34167 4.33953
18 1 2.96425 3.42239 3.07953
1421 1 2.97917 5.1988 5.56506
20 2 4.46382 4.33115 4.3175
1435 1 5.95769 5.19073 5.54097
34 2 7.4473 4.33715 4.29919
1449 1 8.94093 5.20189 5.50575
48 2 10.4224 4.33679 4.28228
1463 1 11.9298 5.21287 5.49407
62 2 13.4121 4.32626 4.26521
1477 1 14.9074 5.18184 5.50977
74 1 14.8944 3.475 3.10379
76 2 16.4093 4.33303 4.29407
1491 1 17.8767 5.18158 5.51239
90 2 19.3833 4.34509 4.29351
1505 1 20.9106 5.20157 5.56296
104 6 22.3729 4.31206 4.27785
1519 1 23.8648 5.21722 5.49471
118 2 25.3493 4.32671 4.24221
1533 1 26.8275 5.17308 5.45102
132 2 28.3347 4.32998 4.24037
1547 1 29.7878 5.15441 5.46481
1405 2 -0.0217114 6.92637 4.33708
1403 1 1.46983 6.07795 3.16422
1408 1 1.48005 7.78589 5.54719
1419 2 2.97134 6.91983 4.32676
1418 1 2.97518 8.67854 3.11496
1417 1 4.50162 6.02883 3.10513
1422 1 4.46248 7.77887 5.55518
1431 1 7.39217 6.04169 3.08415
1433 2 5.95087 6.91946 4.3146
1432 1 5.95025 8.65182 3.14141
1436 1 7.44541 7.78369 5.53153
1446 1 8.93114 8.72207 3.08772
1447 2 8.93739 6.93365 4.29098
1445 1 10.4136 6.07892 3.12036
1450 1 10.4322 7.80315 5.52748
1460 1 11.993 8.61843 3.08053
1459 1 13.4036 6.0928 3.07548
1461 2 11.9214 6.91016 4.30198
1464 1 13.4242 7.77028 5.53065
1475 2 14.9107 6.90383 4.28743
1478 1 16.3982 7.77779 5.53163
1489 2 17.8821 6.91855 4.30879
1492 1 19.3939 7.78919 5.61223
1503 6 20.8809 6.89637 4.27785
1501 1 22.3304 6.07376 3.10196
1506 5 22.3729 7.75781 5.50412
1516 1 23.8798 8.66239 3.08263
1517 2 23.9174 6.90149 4.22618
1520 1 25.2719 7.75524 5.4782
1531 2 26.8287 6.91653 4.2598
1534 1 28.3457 7.76277 5.48339
2803 1 1.52394 11.1635 3.0747
2807 1 -0.0158033 10.3472 5.59887
1406 2 1.47965 9.50186 4.33741
2821 1 2.97217 10.3721 5.5785
2817 1 4.39919 11.2016 3.10962
1420 2 4.45917 9.50643 4.32953
2831 1 7.47209 11.2772 3.07188
2835 1 5.95667 10.3776 5.53884
1434 2 7.44488 9.52389 4.31171
2849 1 8.95313 10.3705 5.55653
2845 1 10.3975 11.2089 3.09804
1448 2 10.4345 9.5134 4.30257
2863 1 11.9097 10.3591 5.54899
2859 1 13.414 11.2527 3.12434
1462 2 13.4217 9.50933 4.29234
2877 1 14.9078 10.3584 5.50619
2873 1 16.3902 11.2509 3.12487
1476 2 16.3932 9.50584 4.29201
2891 1 17.8795 10.3645 5.53428
1490 6 19.389 9.48068 4.27785
2901 1 22.373 11.1967 3.07576
2905 1 20.9079 10.3402 5.56964
1504 2 22.3679 9.57227 4.25277
2919 1 23.8227 10.3262 5.57296
2915 1 25.2815 11.2172 3.11643
1518 2 25.3301 9.50579 4.3065
2933 1 26.8247 10.3795 5.52534
2929 1 28.3153 11.2657 3.14077
1532 2 28.3241 9.51566 4.28711
2805 6 -0.00608916 12.065 4.27785
2806 2 1.47533 14.6786 4.34943
2808 1 1.49707 12.9734 5.59747
2819 2 2.96857 12.0919 4.34171
2818 1 2.94513 13.8112 3.15173
2820 2 4.3817 14.6304 4.26542
2822 1 4.47969 12.9802 5.54705
2833 2 5.94444 12.1032 4.31377
2832 1 5.98096 13.8486 3.10664
2834 2 7.49909 14.6395 4.27721
2836 1 7.42312 12.9819 5.54037
2846 1 8.90566 13.8084 3.09853
2847 2 8.93353 12.1 4.31465
2848 2 10.4238 14.6949 4.31985
2850 1 10.424 12.9654 5.53121
2861 2 11.9222 12.0941 4.30774
2860 1 11.9103 13.8278 3.14117
2862 2 13.4159 14.6885 4.32755
2864 1 13.4157 12.9506 5.52153
2874 1 14.9095 13.8984 3.10301
2875 2 14.9074 12.1024 4.29939
2876 2 16.4081 14.689 4.34197
2878 1 16.4017 12.9511 5.5254
2888 1 17.9514 13.8612 3.08486
2889 2 17.8939 12.104 4.30595
2890 2 19.3951 14.6958 4.35693
2892 1 19.3849 12.9486 5.55761
2903 2 20.8836 12.1094 4.32875
2902 1 20.8643 13.835 3.13821
2904 2 22.3737 14.6943 4.36738
2906 1 22.3639 12.9422 5.57157
2917 2 23.8469 12.092 4.34131
2916 1 23.8576 13.8526 3.17892
2918 2 25.3469 14.6888 4.3674
2920 1 25.3434 12.9395 5.55826
2931 2 26.8257 12.0825 4.33897
2930 1 26.8173 13.8254 3.17008
2932 2 28.3133 14.6899 4.35766
2934 1 28.3283 12.946 5.55324
2944 1 29.7602 13.876 3.09624
4205 2 -0.0279208 17.2401 4.34671
4207 1 -0.0405203 15.5372 5.55589
4203 1 1.46834 16.3727 3.16069
4219 2 2.96379 17.2412 4.32722
4221 1 2.99407 15.5309 5.53781
4217 1 4.49754 16.4031 3.12156
4233 2 5.92585 17.3184 4.30688
4235 5 5.96164 15.5107 5.50412
4231 1 7.3791 16.3646 3.16885
4249 1 8.89849 15.5392 5.55241
4247 2 8.91176 17.255 4.33871
4245 1 10.4173 16.4763 3.12469
4259 1 13.4728 16.4223 3.10515
4261 2 11.9328 17.2593 4.34707
4263 1 11.9207 15.5453 5.55706
4273 1 16.4329 16.4176 3.1033
4275 2 14.921 17.2698 4.36906
4277 1 14.9073 15.5436 5.59414
4289 2 17.9036 17.2794 4.37467
4291 1 17.896 15.5464 5.60953
4287 1 19.3576 16.4065 3.15925
4303 2 20.8805 17.2771 4.36714
4305 1 20.8771 15.5496 5.59776
4301 1 22.3767 16.4198 3.19331
4317 2 23.8651 17.2739 4.37299
4319 1 23.8664 15.547 5.60191
4315 1 25.3471 16.416 3.19152
4331 2 26.8434 17.2746 4.37244
4333 1 26.8417 15.5528 5.59896
4329 1 28.3517 16.396 3.15501
5607 1 0.00821511 20.6675 5.53184
4206 2 1.37318 19.7436 4.23498
4208 1 1.44189 18.1096 5.5124
5621 5 2.97777 20.6794 5.50412
4218 1 3.00061 18.9708 3.11702
4220 2 4.51333 19.7789 4.28955
4222 1 4.47574 18.0943 5.54401
4232 1 5.90501 18.9463 3.11806
5635 1 5.93109 20.6816 5.53983
4234 2 7.43212 19.83 4.33848
4236 1 7.418 18.0852 5.56443
5649 1 8.90998 20.6988 5.59725
4248 6 10.4374 19.8179 4.27785
4250 1 10.4207 18.0946 5.59135
5663 1 11.9582 20.7179 5.63718
4262 2 13.4395 19.849 4.37272
4264 1 13.4168 18.1242 5.60747
4274 1 14.9273 18.9563 3.13247
4288 1 17.8492 19.0408 3.13659
5677 1 14.9375 20.7464 5.57959
4276 2 16.4072 19.8768 4.37986
4278 1 16.4088 18.1369 5.59897
5691 1 17.8776 20.7526 5.6284
4290 2 19.3789 19.8609 4.38434
4292 1 19.3866 18.1302 5.60405
5705 1 20.869 20.7216 5.6135
4302 1 20.8741 19.0488 3.16314
4304 2 22.3758 19.8573 4.37899
4306 1 22.3729 18.1331 5.58123
5719 1 23.8669 20.7312 5.63981
4316 1 23.8711 19.0399 3.1619
4318 2 25.3524 19.857 4.37528
4320 1 25.356 18.1339 5.60345
5733 1 26.8941 20.7159 5.56756
4330 1 26.8438 18.9853 3.1773
4332 2 28.2796 19.8216 4.3054
4334 1 28.3538 18.1664 5.57651
5605 2 0.000119692 22.3822 4.29361
5603 1 1.52878 21.4779 3.12487
5608 1 1.50603 23.2217 5.51603
5619 2 2.97591 22.4729 4.26623
5617 1 4.39949 21.5113 3.16083
5622 1 4.46591 23.2391 5.55814
5631 1 7.5082 21.5818 3.1015
5633 2 5.96061 22.4031 4.33503
5636 1 7.45588 23.2732 5.59939
5645 1 10.4594 21.5853 3.09808
5647 2 8.95572 22.428 4.36467
5650 1 10.4476 23.2823 5.60762
5661 2 11.9409 22.4384 4.37964
5659 1 13.3706 21.5497 3.14962
5664 1 13.4725 23.2858 5.58502
5675 2 14.848 22.3955 4.29553
5673 1 16.4553 21.5931 3.19467
5678 5 16.4052 23.2637 5.50412
5687 1 19.3857 21.5857 3.11118
5689 2 17.9574 22.4176 4.32825
5692 1 19.3594 23.2978 5.61149
5701 1 22.3737 21.5372 3.14513
5703 2 20.8803 22.4476 4.38784
5706 1 22.3896 23.2885 5.61468
5717 2 23.8631 22.4381 4.37883
5715 1 25.2993 21.548 3.15788
5720 1 25.3532 23.2809 5.5994
5731 2 26.8489 22.4331 4.3555
5729 1 28.3312 21.5614 3.19852
5734 1 28.3627 23.2613 5.58662
7003 1 1.50903 26.6911 3.0761
7007 1 0.00356883 25.8338 5.54932
5604 1 -0.0102971 24.1673 3.09181
5606 2 1.49282 24.9709 4.32117
7017 1 4.48817 26.69 3.08758
7021 1 2.98575 25.8362 5.56047
5618 1 2.99104 24.1743 3.10288
5620 2 4.48471 24.9752 4.33942
5632 1 6.02879 24.1475 3.09839
7031 1 7.43269 26.7441 3.11979
7035 1 5.96729 25.8461 5.57695
5634 2 7.47117 24.9966 4.35685
7049 1 8.95739 25.8579 5.57908
5646 1 8.93444 24.124 3.15683
7045 1 10.467 26.797 3.15504
5648 2 10.4536 25.0099 4.36785
7063 1 11.9406 25.8623 5.59445
5660 1 11.9377 24.1576 3.20182
7059 1 13.4938 26.6874 3.16958
5662 2 13.4473 25.0025 4.38319
7073 1 16.4206 26.7436 3.13153
7077 1 14.9438 25.8356 5.62001
5674 1 14.9462 24.1948 3.18773
5676 2 16.4221 25.0823 4.33374
7087 1 19.363 26.7835 3.16066
5688 1 17.9345 24.1986 3.17116
7091 1 17.8927 25.8427 5.64477
5690 2 19.3908 25.0236 4.39981
5702 1 20.8327 24.1332 3.1837
7105 1 20.8893 25.8833 5.61563
7101 1 22.4289 26.7163 3.18318
5704 2 22.3767 25.0202 4.38752
7115 1 25.3706 26.7619 3.12219
7119 1 23.8727 25.8902 5.62908
5716 1 23.8633 24.2249 3.17177
5718 2 25.3593 25.0141 4.37619
7129 1 28.2931 26.6983 3.09726
7133 1 26.8562 25.8572 5.60168
5730 1 26.8404 24.2009 3.14914
5732 2 28.3396 24.9928 4.36822
7004 1 0.0406494 29.2452 3.06553
7005 2 0.0139557 27.564 4.32641
7008 1 1.49375 28.4395 5.56934
7018 1 2.99668 29.242 3.07427
7019 2 2.99137 27.5673 4.3416
7022 1 4.47268 28.4477 5.58594
7032 1 5.95232 29.2565 3.10214
7033 2 5.96685 27.5773 4.35676
7036 1 7.45596 28.4515 5.59822
7046 1 8.93471 29.3043 3.10433
7047 2 8.95573 27.5867 4.36846
7050 1 10.4379 28.4485 5.62256
7060 1 11.8952 29.3314 3.14539
7061 2 11.9446 27.5906 4.3745
7064 1 13.4304 28.4408 5.60155
7074 1 14.9644 29.3271 3.16238
7075 2 14.9248 27.5821 4.39663
7078 1 16.4104 28.4442 5.63303
7088 1 17.8977 29.3339 3.16064
7102 1 20.8329 29.3428 3.15789
7089 2 17.9039 27.5948 4.41429
7092 1 19.3893 28.4477 5.64313
7103 2 20.8945 27.6019 4.39057
7106 1 22.3843 28.4714 5.63057
7116 1 23.9201 29.3396 3.17164
7117 2 23.8716 27.6047 4.38865
7120 1 25.3947 28.4589 5.57201
7131 2 26.8592 27.4931 4.43101
7130 5 26.8487 29.2937 3.092
7134 1 28.3228 28.4644 5.5986
11 1 0.0595093 1.74028 8.05123
13 3 0.0200537 0.0320451 9.01071
9 2 1.5121 0.895307 6.79314
14 3 1.53102 2.6017 9.02119
25 1 3.00921 1.78815 8.02345
27 7 2.97777 0.00487837 8.97177
23 2 4.4833 0.865159 6.7599
28 3 4.51559 2.58932 8.99125
41 3 5.88844 0.0357637 9.02539
39 1 5.93741 1.67934 7.9909
37 2 7.45568 0.94714 6.69445
42 7 7.45357 2.58919 8.97177
53 1 8.93311 1.64854 7.94015
55 3 9.01212 0.0187265 8.97818
51 2 10.4299 0.862687 6.72119
56 7 10.4374 2.58919 8.97177
67 1 11.9586 1.65784 7.98277
69 3 11.9223 -0.0194868 8.95281
65 2 13.4234 0.861124 6.71
70 3 13.4222 2.54846 8.93483
81 1 14.8967 1.6985 7.96374
83 3 14.8886 -0.000786048 8.94567
79 2 16.4242 0.877512 6.73268
84 7 16.4052 2.58919 8.97177
95 1 17.9827 1.77228 7.94837
97 7 17.8971 0.00487837 8.97177
93 2 19.414 0.879623 6.71658
98 3 19.4493 2.57404 8.95844
109 1 20.8719 1.73463 7.92139
111 7 20.8809 0.00487837 8.97177
107 2 22.4008 0.860704 6.6634
112 7 22.3729 2.58919 8.97177
123 1 23.8729 1.68808 7.8563
125 7 23.8648 0.00487837 8.97177
121 2 25.2837 0.881017 6.69697
126 7 25.3567 2.58919 8.97177
137 1 26.834 1.66937 7.81608
139 7 26.8487 0.00487837 8.97177
135 2 28.3636 0.901567 6.67696
140 7 28.3406 2.58919 8.97177
1413 7 -0.00608916 5.1735 8.97177
10 2 -0.0030398 3.47328 6.80727
12 1 1.49044 4.27348 8.01521
1427 7 2.97777 5.1735 8.97177
24 2 2.99168 3.4737 6.7898
26 1 4.54276 4.29972 8.02854
1441 3 5.99516 5.19497 8.99689
38 2 5.97554 3.46042 6.77577
40 1 7.47634 4.38434 8.00322
1455 3 8.93717 5.2477 8.98559
52 2 8.9389 3.46934 6.76281
54 1 10.3415 4.38438 7.99311
1469 7 11.9294 5.1735 8.97177
66 6 11.9294 3.45062 6.73038
68 1 13.4753 4.25187 7.98195
1483 7 14.9132 5.1735 8.97177
80 2 14.931 3.44947 6.73191
82 1 16.4118 4.32672 7.91807
1497 7 17.8971 5.1735 8.97177
94 2 17.9131 3.46614 6.7382
96 1 19.4649 4.25753 8.00143
1511 3 20.9221 5.16493 8.9527
108 2 20.9087 3.45927 6.7296
110 1 22.4191 4.34651 7.98611
1525 3 23.9057 5.20184 8.94109
122 2 23.8807 3.44217 6.70674
124 1 25.3555 4.33578 7.94247
1539 3 26.8305 5.16345 8.94005
136 2 26.8315 3.42832 6.68257
138 1 28.2941 4.3208 7.93807
1553 3 29.7672 5.15707 8.92386
150 2 29.7921 3.42595 6.69138
1411 1 0.0378644 6.93608 8.00944
1410 2 -0.015221 8.65371 6.79453
1409 2 1.48565 6.06066 6.79697
1414 3 1.47184 7.78804 9.01867
1425 1 2.92256 6.96268 8.0067
1424 2 2.97527 8.65066 6.78979
1423 2 4.46696 6.05381 6.78873
1428 7 4.4697 7.75781 8.97177
1439 1 5.95176 6.865 7.98645
1438 2 5.95933 8.64732 6.77456
1437 2 7.45465 6.06282 6.75994
1442 7 7.45357 7.75781 8.97177
1452 2 8.87426 8.60698 6.69847
1453 1 9.00118 6.9265 7.97512
1451 2 10.4373 6.06798 6.73669
1456 3 10.4627 7.69515 8.9953
1467 1 11.8996 6.95366 7.93626
1466 2 12.0122 8.59555 6.69758
1465 2 13.4216 6.03474 6.75131
1470 7 13.4213 7.75781 8.97177
1481 1 14.9072 6.87865 7.93055
1480 2 14.9153 8.62914 6.75562
1479 2 16.3893 6.04426 6.73487
1484 7 16.4052 7.75781 8.97177
1495 1 17.8411 6.92228 7.93048
1494 2 17.8847 8.63098 6.7608
1493 6 19.389 6.03493 6.73038
1498 7 19.389 7.75781 8.97177
1508 2 20.793 8.67604 6.86364
1509 1 20.926 6.84748 7.96589
1507 2 22.3946 5.97525 6.80862
1512 7 22.3729 7.75781 8.97177
1523 1 23.8789 6.88808 7.94169
1522 2 23.8718 8.65828 6.82913
1521 2 25.3278 6.02888 6.69032
1526 3 25.3495 7.71411 8.94044
1537 1 26.8372 6.85665 7.97988
1536 6 26.8487 8.61924 6.73038
1535 2 28.3153 6.02445 6.70327
1540 3 28.3154 7.72594 8.95002
1551 1 29.7632 6.87658 7.98295
2813 3 -0.0169111 10.3534 9.03234
2809 2 1.4896 11.2272 6.80842
1412 1 1.44161 9.48849 8.04456
2827 7 2.97777 10.3421 8.97177
2823 2 4.47157 11.2337 6.77216
1426 1 4.48959 9.51056 7.95381
2841 7 5.96164 10.3421 8.97177
2837 2 7.44934 11.2301 6.75655
1440 1 7.50888 9.52001 7.95399
2855 3 8.86426 10.4104 9.00619
2851 2 10.4309 11.3331 6.70148
1454 5 10.4374 9.48068 7.91623
2869 7 11.9294 10.3421 8.97177
2865 2 13.4084 11.2149 6.74599
1468 1 13.4663 9.50619 7.95333
2883 3 14.9036 10.3544 8.9695
2879 2 16.4066 11.2099 6.73906
1482 1 16.3977 9.52791 8.00273
2897 3 17.8636 10.3732 8.99861
2893 2 19.3772 11.218 6.77243
1496 1 19.348 9.52582 8.03174
2911 3 20.8303 10.3582 9.00719
2907 2 22.3442 11.2016 6.78489
1510 1 22.2671 9.50657 7.99198
2925 7 23.8648 10.3421 8.97177
2921 2 25.3375 11.2078 6.78417
1524 1 25.2709 9.43023 8.01678
2939 7 26.8487 10.3421 8.97177
2935 2 28.3257 11.207 6.77429
1538 1 28.4429 9.46799 8.04931
2811 1 0.00909101 12.0311 8.03502
2810 2 -0.0156129 13.8249 6.8182
2812 1 1.46286 14.7251 8.02763
2814 7 1.48584 12.9264 8.97177
2825 1 2.9966 12.0891 7.95866
2824 2 2.96322 13.8112 6.77093
2826 1 4.40744 14.7031 7.97035
2828 7 4.4697 12.9264 8.97177
2839 1 5.99308 12.1067 7.99301
2838 2 5.94937 13.7415 6.83434
2840 1 7.42323 14.609 7.96954
2842 3 7.4593 12.9358 8.97554
2853 1 8.90896 12.0612 7.98596
2852 2 8.92095 13.8158 6.76364
2854 1 10.4135 14.667 7.9444
2856 7 10.4374 12.9264 8.97177
2867 1 11.9443 12.0952 7.95266
2866 2 11.9172 13.8101 6.76614
2868 1 13.3925 14.6035 8.00128
2870 3 13.393 12.9115 8.97514
2881 1 14.8914 12.0729 8.01113
2880 2 14.901 13.8027 6.77758
2882 1 16.391 14.5922 8.01696
2884 3 16.3794 12.9047 8.99828
2895 1 17.8756 12.0792 8.01955
2894 2 17.8908 13.805 6.79205
2896 1 19.3934 14.5991 8.03063
2898 3 19.3659 12.9058 9.00527
2909 1 20.8337 12.0525 8.02281
2908 2 20.8778 13.8038 6.80176
2910 1 22.3697 14.6636 7.98801
2912 7 22.3729 12.9264 8.97177
2923 1 23.9191 12.093 8.00971
2922 2 23.8605 13.8031 6.80413
2924 1 25.3465 14.6194 8.02516
2926 3 25.3666 12.9366 9.01202
2937 1 26.8387 12.103 8.02206
2936 2 26.8397 13.8047 6.80023
2938 1 28.3376 14.5992 8.0246
2940 3 28.3259 12.9152 9.01033
4213 3 -0.0171722 15.5725 9.00002
4209 2 1.46899 16.393 6.76418
4225 1 2.97244 17.1612 8.00891
4227 3 2.96585 15.517 9.00559
4223 2 4.40217 16.4061 6.81214
4239 1 5.95532 17.2091 7.91981
4241 7 5.96164 15.5107 8.97177
4237 2 7.50508 16.4149 6.83619
4253 1 8.9626 17.2557 8.00465
4255 7 8.9455 15.5107 8.97177
4251 2 10.418 16.4016 6.77459
4267 1 11.8614 17.2803 8.02318
4269 7 11.9294 15.5107 8.97177
4265 2 13.408 16.3933 6.82097
4281 1 14.9468 17.2654 8.0346
4283 7 14.9132 15.5107 8.97177
4279 2 16.4001 16.397 6.82844
4295 1 17.8428 17.2903 8.05032
4297 7 17.8971 15.5107 8.97177
4293 2 19.3857 16.4007 6.84302
4309 1 20.925 17.2899 8.0445
4311 7 20.8809 15.5107 8.97177
4307 2 22.373 16.406 6.82265
4323 1 23.8265 17.3004 8.04059
4325 7 23.8648 15.5107 8.97177
4321 2 25.3581 16.4094 6.83687
4337 1 26.9047 17.3002 8.03128
4339 7 26.8487 15.5107 8.97177
4335 2 28.3447 16.4049 6.81663
4351 1 29.7875 17.2829 8.04083
5613 7 -0.00608916 20.6794 8.97177
4210 2 -0.0202806 18.9605 6.74436
4212 1 1.5483 19.8721 7.91615
4214 7 1.48584 18.095 8.97177
5627 3 2.97275 20.6937 8.95853
4224 6 2.97777 18.9565 6.73038
4226 1 4.5057 19.909 8.02176
4228 7 4.4697 18.095 8.97177
5641 3 5.95399 20.7116 9.02727
4238 2 5.94584 18.9576 6.77465
4240 1 7.41736 19.8596 8.0356
4242 7 7.45357 18.095 8.97177
5655 3 8.90324 20.666 9.02918
4252 2 8.91466 18.9614 6.80448
4254 1 10.3762 19.804 8.06186
4256 3 10.3973 18.0968 9.02448
5669 7 11.9294 20.6794 8.97177
4266 2 11.9222 18.9793 6.83184
4268 1 13.4644 19.8646 8.03064
4270 7 13.4213 18.095 8.97177
5683 3 14.8997 20.7085 9.04486
4280 2 14.9112 18.9874 6.82037
4282 1 16.3664 19.8301 8.08206
4284 3 16.3808 18.1202 9.04368
5697 7 17.8971 20.6794 8.97177
4294 2 17.8953 18.9979 6.83184
4296 1 19.3856 19.853 8.0091
4298 7 19.389 18.095 8.97177
5711 7 20.8809 20.6794 8.97177
4308 2 20.8795 18.9886 6.82805
4310 1 22.3757 19.8134 8.02666
4312 3 22.3747 18.1427 9.03423
5725 7 23.8648 20.6794 8.97177
4322 2 23.8689 19.0009 6.82716
4324 1 25.4164 19.9117 8.01354
4326 7 25.3567 18.095 8.97177
5739 3 26.8719 20.723 9.02455
4336 2 26.8609 19.0014 6.81096
4338 1 28.3598 19.8831 8.03984
4340 3 28.3479 18.1704 9.01573
5611 1 0.00857286 22.4307 7.99873
5609 2 1.41917 21.583 6.80568
5614 3 1.49314 23.2441 8.98877
5625 1 2.93057 22.3801 7.96839
5623 2 4.54922 21.5912 6.84127
5628 7 4.4697 23.2637 8.97177
5639 1 5.97056 22.373 8.00754
5637 2 7.4565 21.5389 6.78964
5642 7 7.45357 23.2637 8.97177
5653 1 8.95735 22.342 8.03005
5651 2 10.4422 21.5529 6.83431
5656 7 10.4374 23.2637 8.97177
5667 1 11.9892 22.4503 8.03378
5665 2 13.4303 21.5632 6.81118
5670 3 13.4511 23.2586 9.04165
5681 1 14.9063 22.3973 8.04517
5679 2 16.4133 21.5005 6.9093
5684 7 16.4052 23.2637 8.97177
5695 1 17.962 22.4812 8.04478
5693 2 19.386 21.5859 6.83827
5698 3 19.4248 23.2937 9.05113
5709 1 20.9064 22.4775 8.0595
5707 2 22.2879 21.5248 6.77978
5712 3 22.3104 23.3463 9.08033
5723 5 23.8648 22.4022 7.91623
5721 2 25.4556 21.5276 6.74748
5726 3 25.4513 23.3067 9.08522
5737 1 26.8153 22.4114 8.0328
5735 2 28.2867 21.6275 6.87485
5740 7 28.3406 23.2637 8.97177
7013 3 0.00738378 25.8043 8.99415
5610 2 0.0075675 24.1114 6.76208
7009 2 1.4888 26.6978 6.78521
5612 1 1.50995 24.9674 8.03488
7027 3 2.98621 25.8386 9.00771
5624 2 2.98994 24.1089 6.77006
7023 2 4.47208 26.7151 6.79989
5626 1 4.48815 25.0316 8.03735
7041 3 5.95937 25.8768 9.02383
5638 2 5.96561 24.1303 6.80537
7037 2 7.45429 26.7262 6.81429
5640 1 7.45682 25.0466 8.06349
7055 3 8.93602 25.8838 9.04476
5652 2 8.95029 24.1345 6.83199
7051 2 10.4386 26.7284 6.83044
5654 1 10.4293 25.0552 8.07773
7069 3 11.9326 25.8572 9.05568
5666 2 11.9391 24.1395 6.82411
7065 2 13.4326 26.7183 6.83041
5668 1 13.4219 24.9891 8.09938
5680 2 14.8655 24.1735 6.89545
7083 3 14.9073 25.856 9.06088
7079 2 16.4123 26.7178 6.85509
5682 1 16.3496 25.0166 8.04607
7097 7 17.8971 25.848 8.97177
5694 2 17.9694 24.1898 6.913
7093 2 19.3995 26.7308 6.86258
5696 1 19.4091 24.9794 8.07049
7111 7 20.8809 25.848 8.97177
5708 2 20.8946 24.1589 6.8296
7107 2 22.3832 26.7518 6.84689
5710 1 22.4011 24.9676 8.03156
7125 7 23.8648 25.848 8.97177
5722 2 23.873 24.2338 6.77797
7121 2 25.3634 26.734 6.83997
5724 1 25.3925 24.956 8.06043
7139 3 26.8375 25.848 9.0398
5736 2 26.8597 24.141 6.81345
7135 2 28.3555 26.7323 6.83528
5738 1 28.3053 25.0457 8.03432
7011 1 -0.0212622 27.4875 8.00268
7010 2 -0.000675906 29.3013 6.77295
7014 7 1.48584 28.4323 8.97177
7025 1 2.96788 27.515 8.00894
7024 2 2.96747 29.3081 6.78996
7028 7 4.4697 28.4323 8.97177
7039 1 5.95273 27.5502 8.02225
7038 2 5.94929 29.3152 6.8129
7042 7 7.45357 28.4323 8.97177
7053 1 8.93621 27.5522 8.03605
7052 2 8.93828 29.3126 6.83584
7056 7 10.4374 28.4323 8.97177
7067 1 11.9716 27.5543 8.07461
7066 2 11.9251 29.2987 6.84936
7070 3 13.4176 28.4228 9.07402
7081 1 14.9177 27.5825 8.11137
7080 2 14.9189 29.3071 6.86075
7084 3 16.4043 28.4381 9.07919
7095 1 17.8678 27.6175 8.08209
7094 2 17.9067 29.3156 6.87838
7098 7 19.389 28.4323 8.97177
7108 2 20.8256 29.2674 6.79595
7109 1 20.9039 27.6097 8.00944
7112 7 22.3729 28.4323 8.97177
7123 1 23.9211 27.676 8.03316
7122 2 23.9904 29.271 6.76905
7126 3 25.3921 28.4623 9.04399
7140 7 28.3406 28.4323 8.97177
7136 2 26.8894 29.3024 6.80654
7137 1 26.8254 27.5508 8.06506
8401 7 -0.00608916 31.0166 2.03646
8415 7 2.97777 31.0166 2.03646
8429 7 5.96164 31.0166 2.03646
8443 3 9.00212 31.0317 2.15977
8457 3 11.945 31.0297 2.16506
8471 3 14.924 31.0251 2.1858
8485 3 17.8987 31.0499 2.19475
8499 3 20.8528 31.0455 2.18016
8513 3 23.8629 31.0255 2.17517
8527 3 26.7992 31.1152 2.10439
8402 3 1.5086 33.6223 2.05973
8404 1 0.0143649 34.5025 2.99301
8416 7 4.4697 33.6009 2.03646
8430 7 7.45357 33.6009 2.03646
8444 3 10.4304 33.5754 2.11874
8458 7 13.4213 33.6009 2.03646
8472 7 16.4052 33.6009 2.03646
8486 3 19.3232 33.5886 2.14636
8500 3 22.374 33.5527 2.1392
8514 7 25.3567 33.6009 2.03646
8528 3 28.3383 33.5669 2.10773
9801 3 0.0309637 36.2322 2.045
9802 3 1.6063 38.7291 1.99944
9803 1 1.46992 37.1025 3.05083
9815 7 2.97777 36.1852 2.03646
9816 3 4.50601 38.7787 2.07116
9817 1 4.56284 37.0798 3.0478
9829 3 6.02554 36.1908 2.08764
9830 7 7.45357 38.7695 2.03646
9843 3 9.00297 36.1506 2.10722
9844 3 10.499 38.7358 2.16384
9857 3 11.9432 36.2703 2.12474
9858 3 13.4153 38.7062 2.17636
9871 7 14.9132 36.1852 2.03646
9872 3 16.4179 38.7434 2.15054
9885 3 17.9536 36.1798 2.16719
9886 7 19.389 38.7695 2.03646
9899 3 20.8724 36.2081 2.15933
9900 7 22.3729 38.7695 2.03646
9913 7 23.8648 36.1852 2.03646
9914 3 25.3818 38.8424 2.15688
9927 7 26.8487 36.1852 2.03646
9928 7 28.3406 38.7695 2.03646
11201 3 0.0446757 41.405 2.03884
11215 7 2.97777 41.3538 2.03646
9818 1 3.00388 39.5978 3.03283
11229 7 5.96164 41.3538 2.03646
11243 7 8.9455 41.3538 2.03646
11257 7 11.9294 41.3538 2.03646
9860 1 11.9629 39.6853 3.05361
11271 7 14.9132 41.3538 2.03646
11285 7 17.8971 41.3538 2.03646
11299 3 20.9084 41.3981 2.14347
11313 3 23.9122 41.3423 2.14466
11327 7 26.8487 41.3538 2.03646
11202 7 1.48584 43.9381 2.03646
11203 1 1.48015 42.2082 3.05432
11216 7 4.4697 43.9381 2.03646
11230 7 7.45357 43.9381 2.03646
11244 7 10.4374 43.9381 2.03646
11258 3 13.4508 43.9796 2.11824
11272 7 16.4052 43.9381 2.03646
11286 3 19.4369 43.9828 2.1403
11300 7 22.3729 43.9381 2.03646
11314 7 25.3567 43.9381 2.03646
11328 7 28.3406 43.9381 2.03646
12601 7 -0.00608916 46.5224 2.03646
12603 1 1.55963 47.3914 3.05577
12615 3 3.03912 46.5791 2.07651
12629 7 5.96164 46.5224 2.03646
12643 7 8.9455 46.5224 2.03646
12657 3 11.9839 46.5308 2.11084
12671 7 14.9132 46.5224 2.03646
12685 3 17.9431 46.4953 2.13035
12699 3 20.8748 46.5322 2.12174
12713 7 23.8648 46.5224 2.03646
12727 3 26.8906 46.525 2.12312
12602 7 1.48584 49.1068 2.03646
12616 3 4.51628 49.0849 2.08449
12630 3 7.45567 49.0841 2.09783
12644 7 10.4374 49.1068 2.03646
12658 7 13.4213 49.1068 2.03646
12672 7 16.4052 49.1068 2.03646
12686 7 19.389 49.1068 2.03646
12700 3 22.366 49.1236 2.10219
12714 7 25.3567 49.1068 2.03646
12728 3 28.3469 49.1415 2.1222
14001 7 -0.00608916 51.6911 2.03646
14015 7 2.97777 51.6911 2.03646
14029 7 5.96164 51.6911 2.03646
14043 7 8.9455 51.6911 2.03646
14057 3 11.9598 51.7211 2.13319
14071 7 14.9132 51.6911 2.03646
14085 3 17.8748 51.7445 2.14644
14099 7 20.8809 51.6911 2.03646
14113 3 23.8979 51.6922 2.10602
14127 3 26.7544 51.6288 2.04356
15401 3 0.128184 56.7813 1.97522
14002 7 1.48584 54.2754 2.03646
14016 3 4.47222 54.2975 2.06923
15429 3 5.87599 56.8164 2.03402
15415 3 2.98495 56.8813 2.01258
14030 7 7.45357 54.2754 2.03646
14044 7 10.4374 54.2754 2.03646
15457 7 11.9294 56.8597 2.03646
14058 7 13.4213 54.2754 2.03646
15471 7 14.9132 56.8597 2.03646
14072 7 16.4052 54.2754 2.03646
15485 7 17.8971 56.8597 2.03646
14086 7 19.389 54.2754 2.03646
15499 7 20.8809 56.8597 2.03646
14100 7 22.3729 54.2754 2.03646
15513 7 23.8648 56.8597 2.03646
14114 7 25.3567 54.2754 2.03646
15527 3 26.8553 56.8306 2.08032
14128 3 28.3543 54.3757 2.07336
15402 3 1.45134 59.3933 2.09182
15403 1 1.52717 57.6547 3.01244
15416 7 4.4697 59.444 2.03646
15417 1 4.4302 57.6481 3.06038
15430 3 7.49442 59.4602 2.12857
15431 1 7.34761 57.6875 2.97245
15443 3 8.9491 56.931 2.11811
15444 3 10.4036 59.4893 2.12274
15445 1 10.4946 57.7409 3.00707
15458 7 13.4213 59.444 2.03646
15472 7 16.4052 59.444 2.03646
15486 3 19.4194 59.4471 2.08606
15500 3 22.402 59.459 2.09385
15514 3 25.4032 59.4427 2.11807
15515 1 25.374 57.7023 3.02315
15528 3 28.3187 59.4272 2.13866
15529 1 28.3233 57.6733 3.01494
8403 1 1.51644 31.9532 3.07081
8405 2 0.0132987 32.7648 4.27415
8407 1 0.0046907 31.0279 5.49618
7006 2 1.5053 30.1625 4.29398
8419 2 2.99608 32.7597 4.29893
8421 1 2.98095 31.0287 5.51796
8417 1 4.51262 31.896 3.14492
7020 2 4.47923 30.1662 4.32687
8433 2 5.98219 32.7565 4.32539
8435 1 5.96116 31.033 5.56813
8431 1 7.53142 31.8623 3.13909
7034 2 7.45818 30.1701 4.35822