ITEM: TIMESTEP
100000
ITEM: NUMBER OF ATOMS
81200
ITEM: BOX BOUNDS pp pp pp
3.3841573443855577e-02 2.9826565432257462e+02
1.8289233707907041e-02 2.9962942274046162e+02
0.0000000000000000e+00 4.9031656433928198e+01
ITEM: ATOMS id type x y z
2 3 1.54309 2.67267 2.11988
15 7 3.05344 0.0892196 2.03646
16 3 4.52486 2.69179 2.09625
29 7 6.03576 0.0892196 2.03646
30 3 7.53071 2.68191 2.07518
31 1 7.56133 0.97825 3.0468
43 7 9.02371 0.142102 2.04177
44 3 10.4748 2.68951 2.05228
45 1 10.4838 0.99352 3.03262
57 7 12.0004 0.0892196 2.03646
58 3 13.4916 2.67207 2.03646
59 1 13.5618 0.922234 3.02252
71 3 15.0229 0.106035 2.0181
72 7 16.4739 2.67207 2.03646
73 1 16.4508 0.953909 3.03963
85 7 17.965 0.0892196 2.03646
86 3 19.4711 2.75724 2.04855
87 1 19.4769 1.06978 3.03459
99 7 20.9473 0.0892196 2.03646
100 7 22.4385 2.67207 2.03646
101 1 22.4944 0.942137 3.0608
113 3 23.9438 0.20534 2.01491
114 3 25.4071 2.64596 2.05889
115 1 25.3945 0.959489 3.06044
127 7 26.912 0.0892196 2.03646
128 7 28.4031 2.67207 2.03646
1401 7 0.0711206 5.25493 2.03646
1415 7 3.05344 5.25493 2.03646
1429 3 6.01864 5.27421 2.09897
32 1 6.03564 3.5416 3.03523
1443 7 9.01808 5.25493 2.03646
46 1 9.0095 3.52065 3.05297
60 1 11.934 3.52038 3.0514
1457 7 12.0004 5.25493 2.03646
1471 7 14.9827 5.25493 2.03646
1485 3 18.0029 5.30892 2.06854
88 1 18.0046 3.60133 3.03707
1499 3 20.9423 5.30574 2.07003
102 1 20.9343 3.60189 3.04107
1513 7 23.9297 5.25493 2.03646
116 1 23.9863 3.5263 3.06247
130 1 26.8564 3.50791 3.03946
1527 7 26.912 5.25493 2.03646
1402 7 1.56228 7.83778 2.03646
1416 7 4.5446 7.83778 2.03646
1430 7 7.52692 7.83778 2.03646
1444 7 10.5092 7.83778 2.03646
1458 3 13.5207 7.85409 2.08542
1472 3 16.5064 7.84017 2.08653
1474 1 15.0144 8.67157 3.0573
1473 1 16.5312 6.14225 3.06418
1486 3 19.4599 7.89171 2.09803
1487 1 19.4731 6.16887 3.054
1500 7 22.4385 7.83778 2.03646
1514 3 25.416 7.90516 2.0916
1515 1 25.4056 6.20793 3.05483
1528 3 28.4072 7.85213 2.08215
1529 1 28.4297 6.15079 3.0539
2801 3 0.0609931 10.4565 2.14748
2815 3 3.02811 10.4313 2.13208
2829 7 6.03576 10.4206 2.03646
2843 3 9.01113 10.4833 2.11288
2857 7 12.0004 10.4206 2.03646
2871 7 14.9827 10.4206 2.03646
2885 7 17.965 10.4206 2.03646
2899 3 20.9517 10.4516 2.11945
2913 3 23.9293 10.4284 2.12157
2927 7 26.912 10.4206 2.03646
2802 7 1.56228 13.0035 2.03646
2816 7 4.5446 13.0035 2.03646
2830 3 7.52017 13.0627 2.13103
2844 7 10.5092 13.0035 2.03646
2858 7 13.4916 13.0035 2.03646
2872 7 16.4739 13.0035 2.03646
2886 3 19.4933 13.071 2.13503
2900 7 22.4385 13.0035 2.03646
2914 7 25.4208 13.0035 2.03646
2928 7 28.4031 13.0035 2.03646
4201 7 0.0711206 15.5863 2.03646
4215 7 3.05344 15.5863 2.03646
4229 3 6.0419 15.6188 2.14687
4243 7 9.01808 15.5863 2.03646
4257 7 12.0004 15.5863 2.03646
4271 3 15.0102 15.6634 2.14671
4285 3 17.9914 15.6385 2.15658
4299 7 20.9473 15.5863 2.03646
4313 3 23.9297 15.5863 2.03646
4327 7 26.912 15.5863 2.03646
5601 7 0.0711206 20.7521 2.03646
4202 7 1.56228 18.1692 2.03646
5615 3 3.07296 20.722 2.14222
4216 7 4.54319 18.1687 2.15031
5629 7 6.03576 20.7521 2.03646
4230 7 7.52692 18.1692 2.03646
5643 3 9.06678 20.7788 2.1495
4244 3 10.5315 18.2222 2.15282
5657 3 12.0128 20.7602 2.1614
4258 3 13.5284 18.1972 2.15574
5671 7 14.9827 20.7521 2.03646
4272 3 16.4734 18.2147 2.17293
5685 3 17.9466 20.8134 2.18311
4286 7 19.4562 18.1692 2.03646
5699 7 20.9546 20.7944 2.17959
4300 7 22.4385 18.1692 2.03646
5713 3 23.9213 20.7825 2.17244
4314 7 25.4208 18.1692 2.03646
5727 7 26.912 20.7521 2.03646
4328 7 28.4031 18.1692 2.03646
5602 7 1.56228 23.3349 2.03646
5616 7 4.5446 23.3349 2.03646
5630 3 7.58732 23.3537 2.14578
5644 7 10.5092 23.3349 2.03646
5658 7 13.4916 23.3349 2.03646
5672 7 16.4739 23.3349 2.03646
5686 3 19.4491 23.3895 2.19022
5700 7 22.4385 23.3349 2.03646
5714 7 25.4208 23.3349 2.03646
5728 7 28.4031 23.3349 2.03646
7001 3 0.104393 25.9106 2.1061
7015 3 3.08474 25.9168 2.11267
7029 3 6.07644 25.9207 2.14037
7043 7 9.01808 25.9178 2.03646
7057 7 12.0004 25.9178 2.03646
7071 3 15.023 25.9276 2.187
7085 3 17.993 25.9624 2.19336
7099 7 20.9473 25.9178 2.03646
7113 3 23.9594 25.9719 2.1869
7127 3 26.9131 25.9539 2.16578
7002 3 1.60325 28.4582 2.09992
7016 3 4.57101 28.464 2.12272
7030 3 7.53199 28.5045 2.14789
7044 3 10.5207 28.539 2.16704
7058 7 13.4916 28.5006 2.03646
7072 3 16.5018 28.5386 2.19146
7086 3 19.444 28.5506 2.18825
7100 7 22.4385 28.5006 2.03646
7114 7 25.367 28.5119 2.14632
7128 3 28.5049 28.4288 2.0839
3 1 1.49336 0.971995 3.093
5 2 0.0642727 1.83075 4.35564
7 1 0.0865192 0.102641 5.58769
8 1 1.57229 2.68326 5.5735
19 2 3.05236 1.81683 4.32627
21 1 3.06729 0.0913187 5.54711
17 1 4.53914 1.01962 3.10085
22 1 4.55774 2.68092 5.54582
33 2 6.0387 1.81668 4.3007
35 1 6.06549 0.0809183 5.51878
36 1 7.53331 2.68697 5.53693
47 2 9.02127 1.81914 4.28839
49 1 9.00985 0.0715075 5.50845
50 1 10.5139 2.67875 5.52544
61 2 12.0034 1.81772 4.25165
63 1 12.0037 0.0871179 5.45029
64 1 13.4946 2.67409 5.47444
75 2 14.9947 1.82098 4.25631
77 1 14.9993 0.0918527 5.47279
78 1 16.4921 2.67605 5.49808
89 2 17.9819 1.83989 4.2565
91 1 17.9917 0.0988801 5.47444
92 1 19.4788 2.68979 5.49652
103 2 20.967 1.84579 4.25704
105 1 20.9734 0.0864487 5.46964
106 1 22.4546 2.67802 5.49273
117 2 23.9428 1.80899 4.27502
119 1 23.9484 0.0368086 5.44157
120 1 25.434 2.63802 5.50023
131 2 26.9057 1.8866 4.19614
133 1 26.912 0.0892196 5.50412
129 1 28.4374 0.937719 3.07199
134 1 28.3777 2.64989 5.47873
1407 1 0.0709213 5.27118 5.58991
4 1 0.121301 3.53221 3.14373
6 2 1.56498 4.41413 4.35098
18 1 3.03703 3.49996 3.08672
1421 1 3.05993 5.2709 5.57717
20 2 4.54166 4.40839 4.32397
1435 1 6.03961 5.26479 5.54761
34 2 7.52669 4.41532 4.29972
1449 1 9.02499 5.27527 5.50781
48 2 10.506 4.41427 4.28824
1463 1 12.0137 5.26087 5.51988
62 2 13.4885 4.40564 4.27379
1477 1 14.9884 5.25725 5.51583
74 1 14.9728 3.56202 3.09939
76 2 16.4821 4.40864 4.28756
1491 1 17.9843 5.26693 5.53747
90 2 19.4754 4.42706 4.29673
1505 1 20.9801 5.29827 5.52327
104 2 22.4479 4.41878 4.27752
1519 1 23.9182 5.28356 5.48634
118 2 25.4149 4.39908 4.26741
1533 1 26.8973 5.25114 5.48121
132 2 28.3939 4.40296 4.26693
1405 2 0.0590226 6.99664 4.35489
1404 1 0.03774 8.77729 3.14317
1403 1 1.54852 6.15261 3.17994
1408 1 1.56045 7.85566 5.56754
1419 2 3.04984 6.99536 4.34325
1418 1 3.049 8.7601 3.13677
1417 1 4.57797 6.1096 3.11707
1422 1 4.54317 7.85183 5.57186
1433 2 6.03001 6.99648 4.32646
1432 5 6.02671 8.73134 3.15745
1431 1 7.4697 6.12288 3.09101
1436 1 7.52763 7.85635 5.54381
1447 2 9.01926 7.01079 4.2988
1446 1 9.01115 8.79971 3.10122
1445 1 10.4953 6.16163 3.12467
1450 1 10.5154 7.87721 5.53614
1461 2 12.0048 6.99916 4.30262
1460 1 12.0784 8.70176 3.09185
1459 1 13.489 6.17832 3.08229
1464 1 13.5071 7.84651 5.54233
1475 2 14.9972 6.9842 4.30087
1478 1 16.4863 7.85248 5.55179
1488 1 17.9654 8.69196 3.08353
1502 1 20.907 8.75569 3.10633
1489 2 17.9811 7.00244 4.32454
1492 1 19.5028 7.85709 5.56574
1503 2 20.9013 6.97572 4.2543
1501 1 22.3848 6.1285 3.09713
1506 1 22.4385 7.83778 5.50412
1517 2 23.9813 6.96386 4.22905
1516 1 23.9592 8.73648 3.11088
1520 1 25.3731 7.85013 5.53062
1530 1 26.9262 8.68541 3.06824
1531 2 26.8988 6.99509 4.29302
1534 1 28.384 7.85328 5.5344
2803 1 1.55694 11.2588 3.12719
2807 1 0.0660026 10.4447 5.59718
1406 2 1.55308 9.57872 4.35921
2821 1 3.05267 10.4448 5.60038
2817 1 4.47099 11.2815 3.1349
1420 2 4.53645 9.58296 4.34961
2831 1 7.55063 11.3519 3.09243
2835 1 6.03703 10.4502 5.55897
1434 2 7.52442 9.59864 4.32831
2849 1 9.03336 10.442 5.57472
2845 1 10.4773 11.2853 3.11816
1448 2 10.5153 9.58939 4.31799
2863 1 11.9892 10.4322 5.56901
2859 5 13.4945 11.3311 3.14794
1462 2 13.5043 9.58785 4.31163
2877 1 14.9851 10.4339 5.53024
2873 5 16.4669 11.329 3.14874
1476 2 16.4811 9.58552 4.31283
2887 1 19.5082 11.3579 3.09234
2891 1 17.9721 10.4343 5.53824
1490 2 19.4621 9.58733 4.3302
2901 1 22.4467 11.2616 3.09896
2905 1 20.9641 10.4076 5.56514
1504 2 22.4353 9.64006 4.27477
2919 1 23.9011 10.403 5.59533
2915 1 25.3549 11.2943 3.13544
1518 2 25.4079 9.58155 4.33724
2933 1 26.8959 10.4353 5.56896
2929 1 28.3869 11.3426 3.16109
1532 2 28.3901 9.59199 4.31944
2805 2 0.0681786 12.1696 4.37791
2804 1 0.0461449 13.8574 3.14883
2806 2 1.56044 14.7465 4.36564
2808 1 1.56066 13.0318 5.59346
2819 2 3.04568 12.1671 4.36378
2818 1 3.03253 13.8861 3.17163
2820 2 4.4689 14.7046 4.28868
2822 1 4.5642 13.0544 5.57163
2833 2 6.02456 12.1778 4.33636
2832 1 6.06531 13.9237 3.12982
2834 2 7.58251 14.7137 4.2988
2836 1 7.50422 13.0534 5.56303
2847 2 9.01332 12.1726 4.33647
2846 1 8.98764 13.8804 3.1221
2848 2 10.5035 14.7649 4.3465
2850 1 10.5029 13.0359 5.55577
2861 2 12.0012 12.1679 4.33186
2860 1 11.9894 13.901 3.16819
2862 2 13.4904 14.7629 4.3569
2864 1 13.4924 13.0234 5.54896
2875 2 14.9838 12.1787 4.32588
2874 1 14.982 13.976 3.12973
2876 2 16.4802 14.7624 4.36872
2878 1 16.4739 13.027 5.5543
2888 1 18.0227 13.9261 3.11343
2889 2 17.9688 12.1735 4.33329
2890 2 19.467 14.764 4.37958
2892 1 19.4591 13.0218 5.58303
2903 2 20.958 12.1713 4.35471
2902 1 20.9326 13.8933 3.16125
2904 2 22.4441 14.7647 4.3864
2906 1 22.4397 13.0169 5.59345
2917 2 23.9209 12.1662 4.36134
2916 1 23.9273 13.9253 3.19711
2918 2 25.418 14.7657 4.38472
2920 1 25.4163 13.0193 5.57566
2931 2 26.8981 12.173 4.34909
2930 1 26.8893 13.9056 3.18657
2932 2 28.3954 14.7699 4.3741
2934 1 28.3987 13.0279 5.56767
4205 2 0.0536144 17.3046 4.36142
4207 1 0.046285 15.6064 5.56973
4203 5 1.55889 16.4462 3.18444
4219 2 3.05326 17.3155 4.35917
4221 1 3.08159 15.6032 5.56116
4217 1 4.58781 16.4757 3.14284
4233 2 6.02461 17.3898 4.31413
4235 1 6.03576 15.5863 5.50412
4231 1 7.47021 16.4394 3.18386
4249 1 8.97941 15.6087 5.57698
4247 2 9.00532 17.3311 4.35973
4245 1 10.4998 16.5407 3.14652
4259 1 13.5402 16.5007 3.13783
4261 2 12.0035 17.3336 4.37611
4263 1 11.9972 15.6145 5.58776
4273 1 16.5031 16.4905 3.12741
4275 2 14.9913 17.3438 4.39678
4277 1 14.9812 15.6173 5.62244
4289 2 17.9746 17.3508 4.39641
4291 1 17.9688 15.6189 5.63353
4287 1 19.4278 16.4736 3.1795
4303 2 20.9508 17.3477 4.38561
4305 1 20.949 15.6214 5.61727
4301 1 22.4451 16.4896 3.21106
4317 2 23.935 17.3474 4.38997
4319 1 23.9373 15.6224 5.61929
4315 1 25.4171 16.4908 3.20899
4331 2 26.9142 17.3495 4.39059
4333 1 26.9127 15.6314 5.6168
4329 1 28.424 16.4707 3.17156
5607 1 0.0963373 20.7311 5.55288
4206 2 1.47225 19.8177 4.26522
4208 1 1.56539 18.1968 5.56639
5621 1 3.05344 20.7521 5.50412
4218 1 3.09123 19.0401 3.1433
4220 2 4.5987 19.8508 4.3091
4222 1 4.53667 18.1748 5.59164
4232 1 5.99809 19.0169 3.13388
5635 1 6.01108 20.7503 5.55401
4234 2 7.52842 19.9012 4.35504
4236 1 7.50434 18.1558 5.58011
4246 1 9.05694 19.0764 3.12405
5649 1 9.0116 20.758 5.59793
4248 2 10.5194 19.909 4.38334
4250 1 10.5025 18.1872 5.59732
4260 1 12.0336 19.0442 3.12464
5663 1 12.0074 20.7719 5.63692
4262 2 13.5059 19.9229 4.39986
4264 1 13.4914 18.1965 5.63612
4274 1 14.9901 19.0305 3.16185
4288 1 17.9165 19.1112 3.15744
5677 1 15.0119 20.82 5.60579
4276 2 16.4776 19.9492 4.40376
4278 1 16.4815 18.2099 5.62336
5691 1 17.9506 20.8249 5.64914
4290 2 19.4498 19.9323 4.40319
4292 1 19.4584 18.2023 5.62333
5705 1 20.9411 20.7941 5.6309
4302 5 20.9439 19.1197 3.18102
4304 2 22.4467 19.9297 4.39586
4306 1 22.4437 18.2062 5.59832
5719 1 23.9382 20.8048 5.65643
4316 1 23.9419 19.1126 3.1788
4318 2 25.4236 19.9304 4.39261
4320 1 25.4262 18.209 5.62098
5733 1 26.965 20.7893 5.58599
4330 1 26.9159 19.0581 3.1957
4332 2 28.3517 19.8922 4.32443
4334 1 28.4236 18.2403 5.59658
5605 2 0.0844373 22.4452 4.3077
5603 1 1.61514 21.5425 3.14246
5608 1 1.5874 23.2865 5.52699
5619 2 3.0591 22.541 4.27721
5617 1 4.48487 21.5796 3.17349
5622 1 4.54369 23.3064 5.56822
5631 1 7.59197 21.6472 3.11464
5633 2 6.04174 22.4703 4.34869
5636 1 7.53196 23.3408 5.61681
5645 1 10.5403 21.5934 3.15183
5647 2 9.03738 22.4889 4.38289
5650 1 10.5243 23.3501 5.62802
5661 2 12.0156 22.4991 4.40107
5659 1 13.448 21.6198 3.17053
5664 1 13.5489 23.3558 5.60802
5675 2 14.9234 22.4666 4.31879
5673 1 16.5271 21.6643 3.21712
5678 1 16.4739 23.3349 5.50412
5687 1 19.4568 21.6562 3.12958
5689 2 18.0303 22.4892 4.34782
5692 1 19.433 23.3698 5.62942
5701 1 22.4449 21.609 3.16166
5703 2 20.9529 22.5193 4.40505
5706 1 22.4629 23.3612 5.63094
5717 2 23.9358 22.5112 4.39526
5715 1 25.3714 21.621 3.17499
5720 1 25.4259 23.3544 5.61647
5731 2 26.9215 22.506 4.37367
5729 5 28.4028 21.6305 3.21748
5734 1 28.4338 23.3328 5.60557
7003 1 1.59045 26.7546 3.08347
7007 1 0.0834918 25.8981 5.55651
5604 1 0.0723418 24.2294 3.10136
5606 2 1.57377 25.0354 4.33003
7017 1 4.56995 26.755 3.09779
7021 1 3.06481 25.9022 5.5696
5618 1 3.07291 24.2396 3.11226
5620 2 4.56495 25.0414 4.34991
5632 1 6.11174 24.2134 3.11146
7031 1 7.51421 26.8103 3.13454
7035 1 6.04555 25.9128 5.58993
5634 2 7.55112 25.0628 4.3727
7049 1 9.03467 25.9255 5.59671
5646 1 9.01668 24.1884 3.17631
7045 1 10.5455 26.865 3.17335
5648 2 10.5314 25.0767 4.38739
7063 1 12.0168 25.9316 5.61437
5660 1 12.0142 24.2236 3.22361
7059 1 13.5687 26.7563 3.18904
5662 2 13.5227 25.0716 4.40397
7073 1 16.495 26.8135 3.14905
7077 1 15.0191 25.9067 5.6395
5674 1 15.021 24.2646 3.20875
5676 2 16.497 25.1532 4.35264
7087 1 19.4374 26.8539 3.17618
5688 1 18.0081 24.2691 3.18929
7091 1 17.9673 25.9144 5.66209
5690 2 19.4647 25.0948 4.41665
5702 1 20.906 24.2039 3.20007
7105 1 20.9632 25.9551 5.63133
7101 1 22.504 26.7868 3.19836
5704 2 22.4508 25.0918 4.40325
7115 1 25.4482 26.8367 3.14241
7119 1 23.9459 25.9627 5.6455
5716 1 23.9391 24.2975 3.1879
5718 2 25.4342 25.088 4.39353
7129 1 28.4092 26.7907 3.13266
7133 1 26.9295 25.9315 5.61731
5730 1 26.9177 24.2772 3.16951
5732 2 28.4161 25.0687 4.38357
7004 1 0.122111 29.3076 3.0694
7005 2 0.0946647 27.6274 4.3319
7008 1 1.57317 28.5042 5.57542
7018 1 3.07804 29.3056 3.08125
7019 2 3.07164 27.6321 4.34978
7022 1 4.5515 28.5134 5.59548
7032 1 6.03354 29.322 3.11329
7033 2 6.04679 27.6434 4.36889
7036 1 7.53415 28.5191 5.61236
7046 1 9.01436 29.3727 3.12031
7047 2 9.0344 27.6546 4.38512
7050 1 10.5148 28.5182 5.64061
7060 1 11.9725 29.4009 3.16375
7061 2 12.0212 27.6598 4.39351
7064 1 13.506 28.5117 5.61983
7074 1 15.039 29.3966 3.17878
7075 2 14.9998 27.6524 4.41453
7078 1 16.4853 28.5156 5.64904
7088 1 17.9722 29.4036 3.17447
7102 1 20.9078 29.4142 3.17039
7089 2 17.9784 27.6656 4.42994
7092 1 19.4636 28.5193 5.65706
7103 2 20.9686 27.673 4.40507
7106 1 22.4567 28.5429 5.64544
7116 1 23.9922 29.4075 3.18751
7117 2 23.9451 27.676 4.40547
7120 1 25.4646 28.5314 5.59018
7131 2 26.9374 27.5674 4.44591
7130 1 26.912 29.3616 3.092
7134 1 28.414 28.5236 5.59222
11 1 0.144688 1.80453 8.06104
13 3 0.110689 0.101608 9.03067
9 2 1.5898 0.954289 6.80091
14 3 1.61777 2.66592 9.02868
25 1 3.09547 1.85882 8.02524
27 7 3.05344 0.0892195 8.97177
23 2 4.56677 0.939573 6.75774
28 3 4.60394 2.65556 8.99342
41 7 5.98617 0.105543 9.01765
39 1 6.02418 1.75106 7.98595
37 2 7.53685 1.02126 6.68257
42 7 7.52692 2.67207 8.97177
53 1 9.01506 1.71696 7.93028
55 3 9.09239 0.0839543 8.96319
51 2 10.5112 0.939242 6.70965
56 7 10.5092 2.67207 8.97177
67 1 12.04 1.76824 7.95408
69 3 12.0016 0.0582808 8.91639
65 2 13.5 0.942043 6.69622
70 3 13.5074 2.60886 8.94409
81 1 14.9742 1.76593 7.95465
83 3 14.97 0.0602549 8.92618
79 2 16.4994 0.951132 6.71705
84 7 16.4739 2.67207 8.97177
95 1 18.0496 1.84485 7.93626
97 7 17.965 0.0892195 8.97177
93 2 19.483 0.952511 6.71055
98 3 19.5098 2.6566 8.9458
109 1 20.9363 1.80661 7.92343
111 7 20.9473 0.0892195 8.97177
107 2 22.4607 0.928609 6.68451
112 7 22.4385 2.67207 8.97177
123 1 23.9354 1.7637 7.87323
125 7 23.9297 0.0892195 8.97177
121 2 25.3573 0.958901 6.71931
126 7 25.4208 2.67207 8.97177
137 1 26.9001 1.75657 7.84885
139 3 26.912 0.0892195 8.97177
135 2 28.4456 0.978953 6.7348
140 7 28.4031 2.67207 8.97177
1413 7 0.0711206 5.25493 8.97177
10 2 0.078572 3.5408 6.81883
12 1 1.57382 4.33983 8.02639
1427 7 3.05344 5.25493 8.97177
24 2 3.07393 3.5442 6.79675
26 1 4.63056 4.36849 8.03542
1441 3 6.08885 5.25667 9.00158
38 2 6.06021 3.53217 6.77602
40 1 7.56844 4.44901 8.00228
1455 3 9.04824 5.29513 8.97192
52 2 9.03048 3.53624 6.75721
54 1 10.4687 4.41903 7.96094
1469 7 12.0004 5.25493 8.97177
66 2 12.0061 3.52406 6.74066
68 1 13.5025 4.29856 7.96157
1483 7 14.9827 5.25493 8.97177
80 2 14.9967 3.5207 6.72886
82 1 16.4869 4.39383 7.91754
1497 3 17.965 5.25493 8.97177
94 2 17.9897 3.54163 6.73782
96 1 19.5326 4.36848 7.99089
1511 3 20.9957 5.23802 8.96723
108 2 20.9778 3.53323 6.73023
110 1 22.4828 4.42487 7.98172
1525 3 23.9607 5.279 8.95158
122 2 23.9445 3.52163 6.71417
124 1 25.4201 4.41751 7.96346
1539 3 26.8926 5.25709 8.95366
136 2 26.8998 3.51007 6.71282
138 1 28.3629 4.40652 7.96996
1553 3 29.8288 5.23967 8.96981
1411 1 0.12029 7.00137 8.02921
1410 2 0.0666534 8.71184 6.82141
1409 2 1.56783 6.12875 6.81294
1414 3 1.55535 7.85388 9.03674
1425 1 3.0062 7.03011 8.0235
1424 2 3.05658 8.72053 6.80932
1423 2 4.5508 6.12398 6.80098
1428 7 4.5446 7.83778 8.97177
1439 1 6.03946 6.93101 7.99856
1438 2 6.04209 8.71696 6.79109
1437 2 7.54107 6.13139 6.7667
1442 7 7.52692 7.83778 8.97177
1452 2 8.95796 8.67514 6.71166
1453 1 9.09053 6.98597 7.98086
1451 2 10.5263 6.131 6.74121
1456 7 10.5459 7.75696 9.00747
1467 1 11.9828 7.02093 7.94503
1466 2 12.0933 8.66596 6.71077
1465 2 13.5001 6.10215 6.76041
1470 3 13.4916 7.83778 8.97177
1481 1 14.9847 6.94695 7.93903
1480 2 14.9965 8.70122 6.7728
1479 2 16.4824 6.11382 6.74971
1484 7 16.4739 7.83778 8.97177
1495 1 17.9645 6.96486 7.9414
1494 2 17.9685 8.69919 6.77498
1493 2 19.4771 6.11956 6.76107
1498 7 19.4562 7.83778 8.97177
1508 2 20.873 8.74524 6.85768
1509 1 20.9647 6.91155 7.96253
1507 2 22.452 6.05483 6.80082
1512 7 22.4385 7.83778 8.97177
1523 1 23.9494 6.96757 7.95624
1522 2 23.9692 8.7338 6.84637
1521 2 25.4082 6.11725 6.72332
1526 3 25.4061 7.79012 8.97944
1537 1 26.9036 6.97637 7.99634
1536 2 26.8971 8.70062 6.7696
1535 2 28.3836 6.10982 6.73767
1540 3 28.3911 7.80732 8.98618
1551 1 29.846 6.94094 7.99833
2813 3 0.0640296 10.4258 9.04697
2809 2 1.56968 11.3 6.82111
1412 1 1.52354 9.55586 8.06514
2827 3 3.05344 10.4206 8.97177
2823 2 4.55333 11.3053 6.79438
1426 1 4.57212 9.5788 7.97357
2841 3 6.03576 10.4206 8.97177
2837 2 7.53002 11.2993 6.77717
1440 1 7.59207 9.58518 7.9709
2855 7 8.9456 10.4757 9.02534
2851 2 10.5099 11.4023 6.7229
1454 5 10.5092 9.55969 7.91623
2869 7 12.0004 10.4206 8.97177
2865 2 13.4856 11.2861 6.77005
1468 1 13.5447 9.57431 7.9725
2883 3 14.9799 10.4219 8.99243
2879 2 16.4714 11.2913 6.77344
1482 1 16.4749 9.60152 8.02241
2897 3 17.9476 10.4397 9.01414
2893 2 19.4537 11.2897 6.78689
1496 1 19.4261 9.59658 8.03427
2911 3 20.905 10.425 9.01865
2907 2 22.431 11.2847 6.81344
1510 1 22.346 9.58294 8.00202
2925 7 23.9297 10.4206 8.97177
2921 2 25.4147 11.2835 6.80733
1524 1 25.4031 9.48533 8.01067
2939 7 26.912 10.4206 8.97177
2935 2 28.3898 11.2847 6.7933
1538 1 28.4522 9.52081 8.02847
2811 1 0.0924404 12.1012 8.04556
2810 2 0.0704447 13.8909 6.8228
2812 1 1.54867 14.7991 8.04356
2814 7 1.56228 13.0035 8.97177
2825 1 3.07952 12.1608 7.98073
2824 2 3.05665 13.8894 6.79894
2826 1 4.49219 14.7804 7.99421
2828 7 4.5446 13.0035 8.97177
2839 1 6.07408 12.1756 8.0157
2838 2 6.03222 13.8128 6.85818
2840 1 7.50435 14.6776 7.99344
2842 3 7.54044 13.0037 8.99859
2853 1 8.98852 12.1281 8.00762
2852 2 9.00054 13.8846 6.78769
2854 1 10.4909 14.7334 7.97341
2856 3 10.5092 13.0035 8.97177
2867 1 12.0215 12.1631 7.97732
2866 2 11.9946 13.8795 6.79372
2868 1 13.4683 14.6738 8.0306
2870 3 13.4669 12.981 9.0032
2881 1 14.9668 12.1441 8.04043
2880 2 14.976 13.8759 6.80625
2882 1 16.4666 14.665 8.04501
2884 3 16.4555 12.9771 9.02595
2895 1 17.9516 12.1523 8.04661
2894 2 17.965 13.878 6.81838
2896 1 19.4685 14.6725 8.05426
2898 3 19.4434 12.9794 9.02958
2909 1 20.9103 12.1259 8.04594
2908 2 20.9524 13.8771 6.82395
2910 1 22.4429 14.7396 8.00772
2912 3 22.4385 13.0035 8.97177
2923 1 23.9935 12.1718 8.0306
2922 2 23.9337 13.8807 6.82286
2924 1 25.4171 14.6996 8.04285
2926 3 25.4377 13.0193 9.03384
2937 1 26.9083 12.1868 8.04146
2936 2 26.9103 13.8856 6.81708
2938 1 28.4054 14.6806 8.04202
2940 7 28.3919 13 9.03334
4213 3 0.0629049 15.6358 9.01603
4209 2 1.55628 16.4683 6.78551
4225 1 3.05669 17.2751 8.01342
4227 3 3.04742 15.6041 9.01719
4223 2 4.48637 16.4851 6.83562
4239 5 6.03977 17.2801 7.94172
4241 7 6.03576 15.5863 8.97177
4237 2 7.58633 16.4851 6.85666
4253 1 9.03997 17.3251 8.0282
4255 3 9.01808 15.5863 8.97177
4251 2 10.4964 16.4599 6.80981
4267 1 11.938 17.3514 8.05293
4269 7 12.0004 15.5863 8.97177
4265 2 13.4831 16.4651 6.85048
4281 1 15.0223 17.3387 8.06197
4283 7 14.9827 15.5863 8.97177
4279 2 16.4744 16.4701 6.85437
4295 1 17.9179 17.3638 8.07324
4297 7 17.965 15.5863 8.97177
4293 2 19.459 16.4736 6.86416
4309 1 20.9977 17.3639 8.06318
4311 7 20.9473 15.5863 8.97177
4307 2 22.4448 16.4804 6.84069
4323 1 23.898 17.3759 8.05803
4325 3 23.9297 15.5863 8.97177
4321 2 25.4281 16.4863 6.85425
4351 1 29.8548 17.3588 8.06062
4337 1 26.972 17.3783 8.05156
4339 7 26.912 15.5863 8.97177
4335 2 28.4066 16.4865 6.84047
5613 7 0.0711206 20.7521 8.97177
4210 2 0.0718667 19.0264 6.77112
4212 1 1.64459 19.9166 7.94909
4214 7 1.56228 18.1692 8.97177
5627 3 3.05652 20.7682 8.98656
4224 2 3.06625 18.9523 6.84187
4226 1 4.53583 19.9495 7.99681
4228 7 4.5446 18.1692 8.97177
5641 3 6.00059 20.7609 9.0194
4238 2 6.02253 19.0256 6.7922
4240 1 7.48801 19.9264 8.05024
4242 7 7.52692 18.1692 8.97177
5655 3 8.97251 20.733 9.04618
4252 2 8.99597 19.0326 6.81802
4254 1 10.4495 19.8751 8.08106
4256 3 10.4716 18.1707 9.04846
5669 7 12.0004 20.7521 8.97177
4266 2 11.9943 19.0514 6.85129
4268 5 13.5401 19.9389 8.0564
4270 7 13.4916 18.1692 8.97177
5683 7 14.9761 20.7821 9.07004
4280 2 14.9858 19.0609 6.84673
4282 1 16.442 19.9036 8.10618
4284 3 16.4576 18.1942 9.06863
5697 7 17.965 20.7521 8.97177
4294 2 17.9689 19.0709 6.85351
4296 1 19.4598 19.9265 8.02837
4298 3 19.4562 18.1692 8.97177
5711 3 20.9473 20.7521 8.97177
4308 2 20.9518 19.0618 6.84597
4310 1 22.4477 19.8877 8.04386
4312 3 22.4468 18.2178 9.05277
5725 7 23.9297 20.7521 8.97177
4322 2 23.9397 19.0754 6.84428
4324 1 25.4856 19.9878 8.03137
4326 7 25.4208 18.1692 8.97177
5739 3 26.9406 20.7984 9.04371
4336 2 26.9303 19.0771 6.82959
4338 1 28.4285 19.9583 8.05931
4340 3 28.4161 18.2465 9.03659
5611 1 0.0862528 22.5004 8.0071
5609 2 1.50743 21.6388 6.81825
5614 3 1.57163 23.3109 8.99792
5625 1 3.00643 22.4432 7.97686
5623 2 4.61443 21.6542 6.84151
5628 7 4.5446 23.3349 8.97177
5639 1 6.03471 22.434 8.01944
5637 2 7.52171 21.6117 6.81404
5642 7 7.52692 23.3349 8.97177
5653 1 9.02799 22.4113 8.05111
5651 2 10.5155 21.6192 6.84948
5656 7 10.5092 23.3349 8.97177
5667 1 12.0651 22.5221 8.05596
5665 2 13.5136 21.6398 6.84024
5670 3 13.5254 23.3323 9.06458
5681 1 14.9828 22.4713 8.07085
5679 2 16.4883 21.5736 6.93236
5684 3 16.4739 23.3349 8.97177
5695 1 18.0371 22.5546 8.06446
5693 2 19.4597 21.6589 6.85698
5698 3 19.5003 23.3678 9.06961
5709 1 20.9808 22.5508 8.07684
5707 2 22.3606 21.5979 6.79653
5712 7 22.3857 23.4191 9.09674
5723 5 23.9297 22.474 7.91623
5721 2 25.5261 21.6022 6.76485
5726 7 25.5227 23.3829 9.10391
5737 1 26.8855 22.4863 8.05106
5735 2 28.3566 21.701 6.89423
5740 7 28.4031 23.3349 8.97177
7013 3 0.0848198 25.8716 9.00167
5610 2 0.0867455 24.1772 6.77099
7009 2 1.5672 26.7635 6.79271
5612 1 1.58781 25.034 8.04371
7027 3 3.06239 25.9062 9.01797
5624 2 3.0678 24.1751 6.78007
7023 2 4.54953 26.7815 6.81054
5626 1 4.56421 25.0981 8.04851
7041 3 6.033 25.9446 9.03739
5638 2 6.04046 24.1964 6.81901
7037 2 7.53082 26.7936 6.82937
5640 1 7.53144 25.1134 8.07964
7055 7 9.00913 25.9526 9.06167
5652 2 9.02534 24.202 6.85083
7051 2 10.5145 26.7978 6.84892
5654 5 10.5046 25.1249 8.09717
7069 7 12.007 25.9289 9.07491
5666 2 12.0153 24.2091 6.84499
7065 2 13.5082 26.7896 6.84968
5668 1 13.4976 25.0614 8.12004
5680 2 14.9414 24.2456 6.91673
7083 3 14.9832 25.9297 9.08013
7079 2 16.4875 26.7901 6.87274
5682 1 16.4254 25.09 8.06537
7097 3 17.965 25.9178 8.97177
5694 2 18.0438 24.2624 6.93147
7093 2 19.4738 26.8032 6.87831
5696 1 19.4839 25.0527 8.08767
7111 7 20.9473 25.9178 8.97177
5708 2 20.9685 24.2315 6.84632
7107 2 22.4561 26.824 6.86258
5710 5 22.4747 25.0405 8.04787
7125 7 23.9297 25.9178 8.97177
5722 2 23.9462 24.307 6.79454
7121 2 25.4353 26.8079 6.85684
5724 1 25.4649 25.0309 8.07706
7139 3 26.9101 25.9231 9.05586
5736 2 26.9319 24.2151 6.83039
7135 2 28.4288 26.8093 6.84201
5738 1 28.3769 25.1209 8.0488
7011 1 0.0567964 27.5539 8.00848
7010 2 0.0781458 29.3665 6.77704
7014 7 1.56228 28.5006 8.97177
7025 1 3.04469 27.5817 8.01754
7024 2 3.04545 29.3738 6.7972
7028 3 4.5446 28.5006 8.97177
7039 1 6.02835 27.6174 8.03464
7038 2 6.0265 29.3822 6.82412
7042 7 7.52692 28.5006 8.97177
7053 1 9.01104 27.6209 8.05275
7052 2 9.01485 29.382 6.85195
7056 3 10.5092 28.5006 8.97177
7067 1 12.047 27.6258 8.0934
7066 2 12.0011 29.37 6.8675
7070 3 13.4931 28.4952 9.09196
7081 1 14.9934 27.6554 8.12928
7080 2 14.9943 29.3792 6.87719
7084 3 16.4803 28.5123 9.09539
7095 1 17.9431 27.6908 8.09802
7094 2 17.9816 29.3878 6.89252
7098 3 19.4562 28.5006 8.97177
7108 2 20.8996 29.3397 6.80907
7109 1 20.9772 27.6826 8.02447
7112 7 22.4385 28.5006 8.97177
7123 1 23.9918 27.7488 8.04976
7122 2 24.0597 29.3433 6.78524
7126 3 25.4617 28.5355 9.0618
7136 2 26.9507 29.3805 6.82932
7140 7 28.4031 28.5006 8.97177
7137 1 26.8959 27.6264 8.08206
8401 7 0.0711206 31.0835 2.03646
8415 7 3.05344 31.0835 2.03646
8429 7 6.03576 31.0835 2.03646
8443 3 9.08513 31.1 2.17585
8457 3 12.0214 31.0987 2.1825
8471 3 14.9973 31.0936 2.20052
8485 3 17.9731 31.1188 2.2073
8499 7 20.9316 31.1171 2.19258
8513 3 23.9343 31.0888 2.18382
8527 3 26.8635 31.178 2.11172
8402 3 1.59171 33.6832 2.06074
8404 1 0.0966455 34.5641 2.99198
8416 7 4.5446 33.6663 2.03646
8430 7 7.52692 33.6663 2.03646
8444 7 10.5161 33.644 2.13607
8458 7 13.4916 33.6663 2.03646
8472 7 16.4739 33.6663 2.03646
8486 3 19.3975 33.6561 2.15375
8500 3 22.5075 33.6223 2.14557
8514 7 25.4208 33.6663 2.03646
8528 3 28.38 33.6415 2.13161
9801 3 0.114102 36.2931 2.04291
9802 7 1.68985 38.7906 1.99793
9803 1 1.55193 37.1644 3.04963
9815 7 3.05344 36.2492 2.03646
9816 3 4.58903 38.8401 2.07262
9817 1 4.64448 37.1415 3.04974
9829 3 6.10966 36.2541 2.09193
9830 7 7.52692 38.832 2.03646
9843 3 9.09756 36.2232 2.13011
9844 3 10.5631 38.8048 2.1363
9857 7 12.0223 36.3433 2.10551
9858 3 13.5112 38.78 2.14579
9871 7 14.9827 36.2492 2.03646
9872 3 16.4966 38.8053 2.15192
9885 3 18.0296 36.2431 2.17344
9886 7 19.4562 38.832 2.03646
9899 3 20.9486 36.2619 2.17249
9900 7 22.4385 38.832 2.03646
9913 7 23.9297 36.2492 2.03646
9914 3 25.4288 38.8508 2.1588
9927 7 26.912 36.2492 2.03646
9928 7 28.4031 38.832 2.03646
11201 7 0.129214 41.4666 2.0361
11215 7 3.05344 41.4149 2.03646
9818 1 3.08619 39.6594 3.03289
11229 3 6.03576 41.4149 2.03646
11243 7 9.01808 41.4149 2.03646
11257 7 12.0004 41.4149 2.03646
11271 7 14.9827 41.4149 2.03646
11285 7 17.965 41.4149 2.03646
11299 3 20.9838 41.4548 2.14601
11313 3 23.9845 41.3897 2.14739
11327 7 26.912 41.4149 2.03646
11202 7 1.56228 43.9977 2.03646
11203 5 1.56346 42.2698 3.05337
11216 7 4.5446 43.9977 2.03646
11230 7 7.52692 43.9977 2.03646
11244 7 10.5092 43.9977 2.03646
11258 3 13.5276 44.0325 2.11978
11272 7 16.4739 43.9977 2.03646
11286 3 19.5142 44.0415 2.1421
11300 7 22.4385 43.9977 2.03646
11314 7 25.4208 43.9977 2.03646
11328 7 28.4031 43.9977 2.03646
12601 7 0.0711206 46.5806 2.03646
12603 1 1.64127 47.4538 3.05657
12615 3 3.12365 46.6439 2.07995
12629 7 6.03576 46.5806 2.03646
12643 7 9.01808 46.5806 2.03646
12657 3 12.0601 46.5939 2.10794
12671 7 14.9827 46.5806 2.03646
12685 3 18.021 46.5543 2.13279
12699 3 20.9512 46.5922 2.12641
12713 7 23.9297 46.5806 2.03646
12727 3 26.9612 46.595 2.12486
12602 7 1.56228 49.1635 2.03646
12616 3 4.586 49.1593 2.1018
12630 3 7.52608 49.1534 2.10889
12644 7 10.5092 49.1635 2.03646
12658 7 13.4916 49.1635 2.03646
12672 7 16.4739 49.1635 2.03646
12686 7 19.4562 49.1635 2.03646
12700 3 22.4447 49.1849 2.11025
12714 7 25.4208 49.1635 2.03646
12728 3 28.4262 49.2175 2.1254
14001 7 0.0711206 51.7463 2.03646
14015 7 3.05344 51.7463 2.03646
14029 7 6.03576 51.7463 2.03646
14043 7 9.01808 51.7463 2.03646
14057 3 12.0274 51.7923 2.13872
14071 7 14.9827 51.7463 2.03646
14085 3 17.9496 51.7888 2.12561
14099 7 20.9473 51.7463 2.03646
14113 3 23.9798 51.759 2.12162
14127 3 26.8546 51.7162 2.0776
15401 7 0.166009 56.8895 2.03738
14002 7 1.56228 54.3292 2.03646
14016 3 4.56652 54.3837 2.10035
15429 3 5.99875 56.9245 2.11594
14030 7 7.52692 54.3292 2.03646
14044 7 10.5092 54.3292 2.03646
15457 7 12.0004 56.912 2.03646
14058 7 13.4916 54.3292 2.03646
15471 3 14.9827 56.912 2.03646
14072 7 16.4739 54.3292 2.03646
15485 7 17.965 56.912 2.03646
14086 7 19.4562 54.3292 2.03646
15499 7 20.9473 56.912 2.03646
14100 3 22.4385 54.3292 2.03646
15513 3 23.9297 56.912 2.03646
14114 7 25.4208 54.3292 2.03646
15527 3 26.9455 56.9162 2.11184
14128 3 28.4254 54.4472 2.07422
15402 3 1.55117 59.4679 2.10942
15415 3 3.0341 56.9829 2.09839
15416 7 4.5446 59.4949 2.03646
15430 3 7.54188 59.5263 2.13942
15443 3 9.00624 56.9736 2.11768
15444 7 10.472 59.556 2.12934
15458 7 13.4916 59.4949 2.03646
15472 7 16.4739 59.4949 2.03646
15486 3 19.4788 59.5008 2.10199
15500 3 22.4568 59.5021 2.10433
15514 3 25.4532 59.4972 2.09685
15528 7 28.3941 59.499 2.09476
8405 2 0.0942711 32.8275 4.27488
8407 1 0.0845189 31.0917 5.49867
8403 1 1.59842 32.0153 3.07373
7006 2 1.5859 30.2261 4.2986
8419 2 3.0765 32.823 4.30277
8421 1 3.06 31.0932 5.52364
8417 5 4.59417 31.959 3.15155
7020 2 4.55944 30.2309 4.33521
8433 2 6.06234 32.8213 4.33367
8435 1 6.03986 31.0991 5.578
8431 1 7.61255 31.9305 3.15213
7034 2 7.53779 30.2377 4.37152
8445 1 10.5528 31.9805 3.15324
8447 2 9.04978 32.8216 4.38529
8449 1 9.03062 31.102 5.62977
7048 2 10.5183 30.2385 4.40318
8459 1 13.5029 31.913 3.17945
8461 2 12.0258 32.7157 4.47238
8463 1 12.0155 31.0898 5.64136
7062 2 13.5097 30.2298 4.40862
8473 1 16.4751 31.934 3.17979
8475 2 14.9879 32.8272 4.4239
8477 1 14.994 31.1063 5.66609
7076 2 16.4852 30.2491 4.4304