ITEM: TIMESTEP
100000
ITEM: NUMBER OF ATOMS
81200
ITEM: BOX BOUNDS pp pp pp
3.2688440567541061e-01 2.9797261149035012e+02
3.1917450183911567e-01 2.9932853747233929e+02
0.0000000000000000e+00 4.9031656433928198e+01
ITEM: ATOMS id type x y z
1 3 0.359134 0.36373 2.14798
2 3 1.87302 2.97125 2.13092
15 3 3.32669 0.40465 2.13156
16 3 4.81712 2.96454 2.123
29 7 6.317 0.389962 2.03646
30 3 7.82486 2.99474 2.11776
43 3 9.29016 0.412541 2.1031
44 3 10.7878 2.9706 2.10784
57 3 12.2485 0.395604 2.0957
58 3 13.7558 2.96027 2.10765
59 1 13.7542 1.23349 3.05584
71 3 15.2651 0.420106 2.08753
72 3 16.72 3.00069 2.10602
85 7 18.2228 0.389962 2.03646
86 3 19.711 3.00606 2.11613
99 7 21.1993 0.389962 2.03646
100 7 22.6875 2.96763 2.03646
113 3 24.1796 0.495777 2.08791
114 3 25.65 2.95073 2.12654
127 7 27.1522 0.389962 2.03646
128 3 28.646 2.97918 2.1138
1401 3 0.369845 5.55757 2.13895
1415 7 3.34055 5.5453 2.03646
1429 3 6.33551 5.5795 2.13161
32 1 6.31467 3.84052 3.06405
1443 3 9.29772 5.59418 2.12426
1457 7 12.2699 5.5453 2.03646
1471 3 15.2647 5.5816 2.12257
1485 3 18.2309 5.56608 2.12352
1499 3 21.2055 5.55235 2.12366
1513 3 24.1599 5.53938 2.11823
1527 3 27.1342 5.55104 2.10768
1402 3 1.85835 8.17246 2.15513
1416 3 4.86733 8.15892 2.15449
1430 3 7.82085 8.16835 2.16165
1444 3 10.7713 8.16677 2.1542
1458 3 13.7809 8.16418 2.15443
1472 3 16.7485 8.1349 2.14415
1486 3 19.7039 8.15074 2.13961
1500 7 22.6875 8.12296 2.03646
1514 3 25.654 8.14133 2.11899
1528 3 28.621 8.12449 2.11649
2801 3 0.412196 10.7384 2.16619
2815 3 3.37545 10.7127 2.179
2829 3 6.33662 10.7456 2.18356
2843 3 9.30034 10.749 2.18707
2857 3 12.2676 10.7127 2.17942
2871 3 15.225 10.7367 2.17015
2885 7 18.2228 10.7006 2.03646
2899 3 21.1828 10.7114 2.14932
2913 3 24.1709 10.7104 2.13653
2927 7 27.1522 10.7006 2.03646
2802 7 1.85232 13.2783 2.03646
2816 3 4.8746 13.3092 2.2111
2830 3 7.79307 13.3213 2.21338
2844 3 10.7761 13.3184 2.20473
2858 7 13.7581 13.2783 2.03646
2872 7 16.7178 13.3377 2.18848
2886 3 19.7065 13.3391 2.17716
2900 7 22.6875 13.2783 2.03646
2914 3 25.6257 13.3455 2.14417
2928 7 28.6404 13.2783 2.03646
4201 7 0.36409 15.856 2.03646
4215 7 3.34055 15.856 2.03646
4229 3 6.34589 15.8905 2.23017
4243 3 9.28439 15.8949 2.23568
4257 3 12.2528 15.895 2.23061
4271 7 15.2567 15.9075 2.22561
4285 3 18.2147 15.9055 2.22377
4299 3 21.1661 15.9228 2.20286
4313 3 24.168 15.9241 2.18249
4327 3 27.1244 15.8869 2.16671
5601 3 0.399593 20.9611 2.2039
4202 3 1.88192 18.4487 2.22232
5615 3 3.3601 20.9879 2.22696
4216 3 4.85495 18.4378 2.2341
5629 3 6.31842 21.034 2.24682
4230 3 7.82074 18.4295 2.24309
5643 3 9.31089 21.0063 2.25672
4244 3 10.7844 18.4499 2.24903
5657 3 12.2771 20.992 2.2603
4258 3 13.7681 18.455 2.25569
5671 3 15.2635 21.0396 2.28857
4272 3 16.7383 18.485 2.25669
5685 3 18.2012 21.0716 2.29587
4286 3 19.6915 18.4989 2.25123
5699 3 21.1899 21.0656 2.27972
4300 3 22.6618 18.4956 2.23272
5713 3 24.1516 21.0775 2.26423
4314 3 25.6228 18.5097 2.2031
5727 3 27.1084 21.073 2.23774
4328 7 28.6404 18.4336 2.03646
5602 7 1.85232 23.589 2.03646
5616 3 4.87142 23.5738 2.23929
5630 3 7.82668 23.5858 2.25579
5644 7 10.7817 23.589 2.03646
5658 7 13.7581 23.589 2.03646
5672 3 16.7603 23.6351 2.31062
5686 3 19.7033 23.6344 2.31788
5700 3 22.6752 23.6335 2.30276
5714 3 25.6265 23.6483 2.27965
5728 7 28.6404 23.589 2.03646
7001 7 0.406552 26.1543 2.19371
7015 3 3.39123 26.1554 2.2186
7029 3 6.3429 26.1672 2.2541
7043 7 9.29346 26.1666 2.03646
7057 7 12.2699 26.1666 2.03646
7071 3 15.3051 26.1921 2.31025
7085 3 18.2483 26.1737 2.3284
7099 3 21.2081 26.1923 2.32352
7113 3 24.172 26.2046 2.31927
7127 3 27.1177 26.204 2.27901
7002 3 1.89936 28.7064 2.20872
7016 3 4.85973 28.718 2.23935
7030 3 7.82068 28.7458 2.27469
7044 3 10.8176 28.768 2.30031
7058 3 13.8071 28.7628 2.31876
7072 3 16.7672 28.7753 2.32993
7086 3 19.7316 28.7666 2.33548
7100 3 22.6901 28.774 2.33266
7114 3 25.5544 28.722 2.25328
7128 3 28.725 28.7021 2.21323
3 1 1.83695 1.25534 3.09912
5 2 0.368381 2.11485 4.36636
7 1 0.385864 0.395717 5.61865
8 1 1.8637 2.97349 5.59788
17 1 4.78977 1.27154 3.11205
19 2 3.34652 2.11322 4.36151
21 1 3.35809 0.392305 5.59141
22 1 4.84707 2.97305 5.58281
31 1 7.84853 1.2949 3.09964
33 2 6.32262 2.10969 4.33779
35 1 6.34235 0.383038 5.57691
36 1 7.81393 2.98019 5.56493
45 1 10.7765 1.25745 3.07898
47 2 9.30118 2.11649 4.3398
49 1 9.28114 0.376179 5.5835
50 1 10.7852 2.96755 5.56978
61 2 12.2722 2.10617 4.33495
63 1 12.2692 0.382741 5.55384
64 1 13.7654 2.96459 5.56627
73 1 16.7055 1.29998 3.0851
75 2 15.2482 2.11539 4.3319
77 1 15.2527 0.38708 5.5505
78 1 16.7456 2.96874 5.57446
89 2 18.235 2.11828 4.33404
91 1 18.2405 0.386775 5.53977
87 1 19.7399 1.3314 3.12102
92 1 19.7237 2.97157 5.57635
103 2 21.2133 2.12059 4.34426
105 1 21.2239 0.366522 5.56862
101 1 22.7355 1.21833 3.15036
106 1 22.6985 2.95904 5.57804
117 2 24.1807 2.0958 4.35346
119 1 24.1946 0.332927 5.52501
115 1 25.6247 1.26249 3.13122
120 1 25.6726 2.92784 5.56468
131 2 27.143 2.18195 4.2617
133 1 27.1522 0.389962 5.50412
129 1 28.6554 1.28644 3.11034
134 1 28.6115 2.93681 5.55774
147 1 30.0834 0.394329 5.57073
4 1 0.427925 3.85878 3.11889
1407 1 0.369734 5.5491 5.60069
6 2 1.86721 4.70222 4.36019
18 1 3.35003 3.79762 3.12071
1421 1 3.35326 5.55319 5.57893
20 2 4.83815 4.70025 4.35174
1435 1 6.32965 5.55001 5.59448
34 2 7.81526 4.70401 4.34862
46 1 9.31509 3.86307 3.06954
1449 1 9.30749 5.55117 5.58928
48 2 10.7945 4.7008 4.34235
60 1 12.2746 3.78548 3.09548
1463 1 12.2793 5.54688 5.56474
62 2 13.7606 4.69618 4.34063
74 1 15.2287 3.85214 3.07006
1477 1 15.2607 5.54032 5.58873
76 2 16.741 4.69405 4.35452
88 1 18.2133 3.843 3.0805
1491 1 18.2398 5.54882 5.58909
90 2 19.7212 4.69846 4.35714
102 1 21.1653 3.86099 3.11444
1505 1 21.2272 5.57763 5.5769
104 2 22.6915 4.68904 4.35017
116 1 24.2127 3.8496 3.11218
1519 1 24.1604 5.56815 5.57026
118 2 25.6531 4.68291 4.34877
130 1 27.1434 3.82699 3.06526
1533 1 27.134 5.54057 5.56822
132 2 28.6271 4.68612 4.34391
144 1 30.0912 3.87074 3.09627
1404 1 0.401971 9.03793 3.14286
1403 1 1.80384 6.46547 3.12356
1405 2 0.360664 7.28094 4.37203
1408 1 1.86423 8.13169 5.61511
1418 1 3.36636 8.98722 3.12814
1417 1 4.88624 6.45322 3.1251
1419 2 3.3523 7.27402 4.37295
1422 1 4.84135 8.12973 5.62188
1432 1 6.33802 9.02219 3.13921
1431 1 7.81513 6.43771 3.10663
1433 2 6.33077 7.28256 4.38102
1436 1 7.81427 8.12868 5.61725
1446 1 9.3003 9.02514 3.14241
1445 1 10.7463 6.46131 3.12454
1447 2 9.30714 7.28637 4.38154
1450 1 10.7976 8.14389 5.63631
1460 1 12.2759 8.98754 3.12879
1459 1 13.8141 6.45347 3.11552
1461 2 12.2758 7.27231 4.36663
1464 1 13.7753 8.12054 5.60213
1474 1 15.2749 9.01072 3.11893
1473 1 16.7507 6.41742 3.10721
1475 2 15.2668 7.27435 4.37336
1478 1 16.7533 8.12554 5.62732
1487 1 19.7232 6.42281 3.08671
1488 1 18.2242 8.95619 3.14243
1489 2 18.2382 7.27541 4.37728
1492 1 19.759 8.1287 5.59343
1503 2 21.1513 7.24001 4.28328
1502 1 21.1557 9.01661 3.13886
1501 1 22.688 6.36867 3.11974
1506 1 22.6875 8.12296 5.50412
1515 1 25.6458 6.41526 3.0699
1517 2 24.2251 7.23436 4.27302
1516 1 24.2109 9.01478 3.12478
1520 1 25.6187 8.12439 5.57256
1529 1 28.6125 6.41145 3.08676
1530 1 27.1417 8.94909 3.10769
1531 2 27.1328 7.2698 4.35068
1534 1 28.6245 8.12569 5.58131
2803 1 1.89452 11.5354 3.16903
2807 1 0.374556 10.7148 5.62025
1406 2 1.87138 9.85568 4.39946
2817 1 4.84617 11.5844 3.16216
2821 1 3.35892 10.7117 5.65476
1420 2 4.8467 9.85937 4.4143
2831 1 7.81597 11.5972 3.16855
2835 1 6.33005 10.716 5.66579
1434 2 7.81944 9.87106 4.41602
2845 1 10.7964 11.5905 3.156
2849 1 9.31423 10.7091 5.66313
1448 2 10.7919 9.86002 4.41705
2859 1 13.7436 11.5295 3.1808
2863 1 12.2624 10.6981 5.67914
1462 2 13.7611 9.85274 4.40285
2873 1 16.6742 11.6268 3.15135
2877 1 15.2495 10.702 5.63275
1476 2 16.7458 9.85944 4.38604
2887 1 19.7601 11.629 3.14171
2891 1 18.235 10.703 5.5994
1490 2 19.7169 9.8554 4.37358
2901 1 22.6811 11.524 3.11961
2905 1 21.219 10.6753 5.6032
1504 2 22.6851 9.90596 4.29388
2915 1 25.6048 11.6334 3.10777
2919 1 24.1559 10.6737 5.58595
1518 2 25.6537 9.85355 4.34733
2933 1 27.1379 10.7051 5.56398
2929 1 28.6897 11.5485 3.14013
1532 2 28.6289 9.84998 4.34931
2805 2 0.386046 12.4396 4.4025
2804 1 0.369488 14.1342 3.18708
2806 2 1.8727 15.0142 4.41114
2808 1 1.86605 13.2956 5.63724
2819 2 3.36517 12.4362 4.42594
2818 1 3.40685 14.1287 3.20412
2820 2 4.77985 14.9745 4.37849
2822 1 4.85859 13.3147 5.67352
2832 1 6.32852 14.1835 3.21222
2833 2 6.32873 12.4472 4.44335
2834 2 7.87103 14.9761 4.39191
2836 1 7.79312 13.3153 5.66921
2846 1 9.28889 14.1646 3.17943
2860 1 12.2232 14.1909 3.20249
2847 2 9.29224 12.4359 4.43605
2848 2 10.772 15.0199 4.4625
2850 1 10.7763 13.2935 5.65894
2861 2 12.2731 12.4308 4.42558
2862 2 13.7517 15.0089 4.45034
2864 1 13.7534 13.2771 5.64718
2874 5 15.2781 14.2037 3.19816
2875 2 15.2354 12.4392 4.41396
2876 2 16.7345 15.0198 4.448
2878 1 16.7368 13.2791 5.65358
2888 1 18.2156 14.17 3.16046
2902 1 21.1507 14.216 3.1714
2889 2 18.2229 12.4341 4.39832
2890 2 19.7055 15.0257 4.43625
2892 1 19.7163 13.2813 5.64186
2903 2 21.2042 12.4384 4.38676
2904 2 22.6797 15.0243 4.40882
2906 1 22.6871 13.2798 5.60099
2916 1 24.19 14.2176 3.15175
2930 1 27.1004 14.1795 3.13171
2917 2 24.1614 12.438 4.36884
2918 2 25.6571 15.0265 4.39276
2920 1 25.6587 13.2799 5.60444
2931 2 27.1451 12.433 4.34835
2932 2 28.6383 15.0099 4.37298
2934 1 28.6342 13.2868 5.57648
4205 2 0.366261 17.5638 4.42592
4207 1 0.345331 15.8628 5.62581
4203 1 1.87815 16.7682 3.2148
4219 2 3.35739 17.5777 4.44192
4221 1 3.37229 15.8607 5.63546
4217 1 4.90377 16.7523 3.23829
4231 1 7.80848 16.7293 3.24023
4233 2 6.32195 17.6599 4.40986
4235 5 6.317 15.856 5.50412
4249 1 9.25002 15.8637 5.69529
4245 1 10.7717 16.7353 3.21829
4247 2 9.28171 17.5798 4.4888
4259 1 13.7535 16.7272 3.2032
4261 2 12.2665 17.58 4.49037
4263 1 12.2648 15.8609 5.71349
4273 1 16.736 16.759 3.20779
4275 2 15.2443 17.5917 4.48549
4277 1 15.241 15.8604 5.68908
4287 1 19.6938 16.7703 3.19812
4289 2 18.2185 17.6053 4.48481
4291 1 18.2266 15.8647 5.68595
4301 1 22.6732 16.7573 3.16274
4303 2 21.1916 17.6061 4.46607
4305 1 21.2009 15.8703 5.67015
4315 1 25.6613 16.7765 3.14281
4317 2 24.1692 17.6077 4.43702
4319 1 24.1758 15.8704 5.64158
4329 1 28.6249 16.6881 3.14702
4331 2 27.1558 17.6062 4.40987
4333 1 27.1544 15.8737 5.62206
4204 1 0.354222 19.2511 3.17285
5607 1 0.388419 20.9818 5.66068
4206 2 1.79151 20.0842 4.37239
4208 1 1.85829 18.4473 5.65308
4218 1 3.36651 19.2862 3.21179
5621 5 3.34055 21.0113 5.50412
4220 2 4.89604 20.1091 4.39628
4222 1 4.82354 18.4384 5.6738
5635 1 6.27617 20.999 5.69277
4232 1 6.33617 19.3075 3.19759
4234 2 7.80578 20.1513 4.48923
4236 1 7.7797 18.4089 5.71753
4246 1 9.29456 19.2925 3.22542
5649 1 9.28767 21.0045 5.71662
4248 2 10.7825 20.1507 4.49259
4250 1 10.7691 18.4365 5.71937
4260 1 12.2731 19.284 3.23535
5663 1 12.2712 21.014 5.72706
4262 2 13.7624 20.1585 4.50552
4264 1 13.7594 18.4367 5.73479
4274 1 15.2455 19.3148 3.23862
5677 1 15.2673 21.0446 5.73517
4276 2 16.7317 20.1852 4.5169
4278 1 16.7341 18.4492 5.72454
4288 1 18.2128 19.3435 3.24342
5691 1 18.1994 21.0551 5.76678
4290 2 19.6977 20.1813 4.5201
4292 1 19.7073 18.4497 5.73272
4302 1 21.1837 19.3379 3.22776
5705 1 21.1921 21.0271 5.75527
4304 2 22.6827 20.1851 4.49853
4306 1 22.6876 18.452 5.69226
4316 1 24.1495 19.3463 3.20647
4330 1 27.0937 19.3575 3.1875
5719 1 24.1803 21.0422 5.74769
4318 2 25.6526 20.1879 4.47042
4320 1 25.6705 18.4519 5.66287
5733 1 27.1968 21.0219 5.6859
4332 2 28.5707 20.1395 4.3687
4334 1 28.6568 18.4778 5.62747
5605 2 0.388967 22.6956 4.40584
5603 1 1.8671 21.783 3.21734
5608 1 1.87458 23.5312 5.63923
5617 1 4.81821 21.8638 3.22142
5619 2 3.34904 22.7921 4.37634
5622 1 4.81135 23.5407 5.70827
5631 1 7.81863 21.8672 3.21712
5633 2 6.31317 22.717 4.48127
5636 1 7.80057 23.5804 5.7189
5645 1 10.797 21.8262 3.24355
5647 2 9.30113 22.7259 4.49046
5650 1 10.7907 23.5859 5.73377
5659 1 13.7488 21.8386 3.24752
5661 2 12.2778 22.7387 4.50232
5664 1 13.8007 23.5892 5.7209
5675 2 15.1728 22.7041 4.43774
5673 1 16.7217 21.9227 3.28307
5678 5 16.7346 23.589 5.50412
5687 1 19.7027 21.9053 3.26358
5689 2 18.2842 22.7166 4.47439
5692 1 19.6831 23.5983 5.76872
5701 1 22.673 21.913 3.26337
5703 2 21.1973 22.7606 4.54526
5706 1 22.7068 23.5942 5.79901
5715 1 25.6423 21.9248 3.23678
5717 2 24.17 22.7583 4.53285
5720 1 25.6614 23.5928 5.76377
5731 2 27.1528 22.7521 4.48645
5729 1 28.5792 21.8522 3.26023
5734 1 28.6669 23.5659 5.69956
7003 1 1.88906 26.9956 3.1803
7007 1 0.375514 26.1401 5.65152
5604 5 0.39237 24.4822 3.2016
5606 2 1.86888 25.2792 4.43602
7017 1 4.8518 27.0134 3.22112
5618 1 3.40733 24.4566 3.20152
7021 1 3.34094 26.1427 5.68421
5620 2 4.84422 25.289 4.47781
5632 1 6.34042 24.4466 3.21842
7031 1 7.78639 27.0463 3.25218
7035 1 6.32275 26.1505 5.71578
5634 2 7.81772 25.3008 4.48928
7049 1 9.30133 26.1566 5.71758
5646 1 9.26657 24.4173 3.28021
7045 1 10.8103 27.0919 3.30228
5648 2 10.7944 25.3096 4.50196
7059 1 13.8352 27.054 3.28492
7063 1 12.2853 26.1605 5.73504
5660 5 12.2754 24.4642 3.33938
5662 2 13.7809 25.3116 4.52026
7073 1 16.7741 27.0556 3.29341
7077 1 15.2751 26.1389 5.76837
5674 1 15.3115 24.5001 3.3067
5676 2 16.7542 25.398 4.48716
7087 1 19.7246 27.0464 3.29855
5688 1 18.2267 24.47 3.32043
7091 1 18.2205 26.1463 5.80196
5690 2 19.7132 25.3218 4.56365
5702 1 21.1952 24.4763 3.29285
7101 1 22.6884 27.0556 3.29752
7105 1 21.2129 26.179 5.78448
5704 2 22.688 25.3262 4.55877
5716 1 24.156 24.4868 3.28433
7115 1 25.6605 27.0687 3.28018
5730 1 27.0957 24.5035 3.25999
7119 1 24.1885 26.1909 5.79163
5718 2 25.6607 25.3256 4.52904
7129 1 28.6251 27.0433 3.2329
7133 1 27.1695 26.1632 5.74044
5732 2 28.6436 25.3106 4.48402
7004 1 0.413725 29.5485 3.17764
7005 2 0.387847 27.8696 4.43191
7008 1 1.85735 28.7417 5.68489
7018 1 3.36631 29.5566 3.19932
7019 2 3.35546 27.8749 4.46072
7022 1 4.83116 28.749 5.70137
7032 1 6.3223 29.5675 3.23679
7033 2 6.32791 27.8832 4.4899
7036 1 7.81449 28.7473 5.74307
7046 1 9.30785 29.6038 3.24969
7047 2 9.3091 27.8862 4.51128
7050 1 10.7889 28.7444 5.77239
7060 1 12.3061 29.6139 3.2747
7061 2 12.2931 27.8885 4.52968
7064 1 13.7779 28.7372 5.77914
7074 1 15.2783 29.6192 3.30769
7075 2 15.271 27.8887 4.55759
7078 1 16.7513 28.7418 5.79619
7088 1 18.2503 29.6238 3.31183
7089 2 18.2429 27.893 4.57147
7092 1 19.7213 28.7449 5.79187
7102 1 21.2101 29.6332 3.30884
7103 2 21.2167 27.9026 4.5668
7106 1 22.7061 28.7675 5.82531
7116 1 24.1803 29.6134 3.31047
7117 2 24.1809 27.9066 4.55625
7120 1 25.7065 28.7618 5.73069
7131 2 27.1649 27.8052 4.56852
7130 1 27.1522 29.6035 3.092
7134 1 28.6518 28.7564 5.70421
11 1 0.37656 2.13097 8.10095
13 3 0.384444 0.416822 9.06946
9 2 1.87304 1.25976 6.83224
14 3 1.88128 2.96682 9.0614
25 1 3.36747 2.11128 8.08824
27 3 3.38924 0.387274 9.04261
23 2 4.85422 1.25018 6.80561
28 3 4.87226 2.95862 9.03813
41 7 6.26134 0.445281 9.09399
39 1 6.34557 2.09245 8.0553
37 2 7.81443 1.33685 6.73342
42 3 7.82401 2.94438 9.03928
53 1 9.294 2.08476 8.04906
55 7 9.38597 0.429109 9.07402
51 2 10.7795 1.23995 6.78698
56 3 10.7766 2.94406 9.0236
67 1 12.2709 2.09289 8.06054
69 3 12.2592 0.363551 9.00535
65 2 13.7624 1.24309 6.78604
70 3 13.7612 2.94126 9.03287
81 1 15.2553 2.0974 8.06261
83 3 15.2494 0.373328 9.01766
79 2 16.7429 1.23982 6.78608
84 3 16.7457 2.94829 9.03293
95 1 18.2301 2.08449 8.06522
97 3 18.2153 0.357253 9.0177
93 2 19.7224 1.23914 6.79135
98 3 19.7154 2.95007 9.02692
109 1 21.1568 2.1157 8.00819
111 3 21.1993 0.389962 8.97177
107 2 22.7072 1.23009 6.78438
112 7 22.6875 2.96763 8.97177
123 1 24.2245 2.06413 8.02718
125 3 24.2119 0.356867 8.98945
121 2 25.6106 1.26293 6.82675
126 3 25.6838 2.94218 9.00523
137 1 27.1539 2.12224 7.99884
139 7 27.1522 0.389962 8.97177
135 2 28.6775 1.27901 6.83778
140 3 28.609 2.96286 9.00984
151 1 30.0676 2.12249 8.01753
1413 3 0.389437 5.52978 9.0624
10 2 0.373547 3.83298 6.82869
12 1 1.87638 4.68058 8.08938
1427 3 3.36283 5.53378 9.06273
24 2 3.35962 3.82972 6.81822
26 1 4.85034 4.68448 8.0869
1441 3 6.34044 5.52905 9.06248
38 2 6.33104 3.82784 6.81347
40 1 7.82314 4.67132 8.08715
1455 3 9.31282 5.53153 9.04887
52 2 9.30687 3.82337 6.80725
54 1 10.7942 4.67135 8.07459
1469 3 12.2824 5.53163 9.03895
66 2 12.276 3.81763 6.79878
68 1 13.7612 4.66088 8.07017
1483 3 15.243 5.50788 9.05222
80 2 15.2578 3.81832 6.80701
82 1 16.7552 4.6814 8.09275
1497 3 18.2614 5.5251 9.04782
94 2 18.2378 3.82219 6.81045
96 1 19.7464 4.67423 8.075
1511 3 21.2234 5.56837 9.02881
108 2 21.2135 3.8227 6.8027
110 1 22.6997 4.72151 8.05253
1525 3 24.1781 5.57069 9.02352
122 2 24.1789 3.81647 6.79241
124 1 25.6461 4.6722 8.06133
1539 3 27.1331 5.53452 9.02621
136 2 27.1399 3.81206 6.78518
138 1 28.6223 4.68402 8.05498
1411 1 0.40897 7.22499 8.07502
1410 2 0.363036 8.97859 6.84633
1409 2 1.8664 6.40226 6.82905
1414 3 1.85479 8.09531 9.07292
1425 1 3.35514 7.25783 8.10738
1424 2 3.35001 8.98329 6.86354
1423 2 4.84629 6.40472 6.83224
1428 3 4.8487 8.09441 9.08126
1439 1 6.35077 7.25926 8.11799
1438 2 6.33369 8.98429 6.86925
1437 2 7.82468 6.39757 6.83315
1442 3 7.85621 8.09783 9.07942
1452 2 9.24384 8.93404 6.79504
1453 1 9.32973 7.25173 8.08697
1451 2 10.7978 6.40119 6.81826
1456 7 10.8034 7.98821 9.12913
1467 1 12.2749 7.2551 8.08186
1466 2 12.3701 8.92437 6.79265
1465 2 13.7669 6.38703 6.81961
1470 3 13.7666 8.0752 9.0713
1481 1 15.2186 7.21 8.07668
1480 2 15.2661 8.96761 6.85444
1479 2 16.7537 6.39976 6.83327
1484 3 16.7346 8.12296 8.97177
1495 1 18.2957 7.22527 8.06818
1494 2 18.2392 8.97231 6.83587
1493 2 19.7407 6.40466 6.80819
1498 3 19.7587 8.09135 9.04831
1508 2 21.1421 9.02068 6.88647
1509 1 21.235 7.26992 8.03663
1507 2 22.6984 6.3325 6.86143
1512 3 22.7043 8.11535 9.03555
1523 1 24.1712 7.27203 8.03071
1522 2 24.2398 9.01919 6.8715
1521 2 25.6495 6.40374 6.79253
1526 3 25.649 8.10861 9.03133
1537 1 27.1407 7.25603 8.06606
1536 2 27.1394 8.97728 6.79931
1535 2 28.626 6.40309 6.8011
1540 3 28.6257 8.11375 9.03876
2813 3 0.332738 10.6922 9.08023
2809 2 1.86658 11.5619 6.8646
1412 1 1.79794 9.80929 8.11522
2827 3 3.34055 10.7006 8.97177
2823 2 4.84305 11.5612 6.88598
1426 1 4.84116 9.77644 8.08944
2841 7 6.317 10.7006 8.97177
2837 2 7.81801 11.5569 6.88219
1440 1 7.89415 9.79405 8.09541
2855 3 9.25319 10.7106 9.1384
2851 2 10.785 11.6593 6.82055
1454 5 10.7817 9.84141 7.91623
2869 7 12.2699 10.7006 8.97177
2865 2 13.7478 11.5429 6.88023
1468 1 13.7995 9.77604 8.0935
2883 3 15.2521 10.6535 9.08328
2879 2 16.7415 11.5533 6.86092
1482 1 16.753 9.87337 8.09011
2897 3 18.2345 10.6877 9.08691
2893 2 19.7235 11.552 6.84254
1496 1 19.7143 9.82497 8.10904
2911 3 21.2246 10.6681 9.0558
2907 2 22.6917 11.5451 6.82182
1510 1 22.6947 9.81995 8.05226
2925 3 24.169 10.6726 9.04548
2921 2 25.6577 11.553 6.811
1524 1 25.6662 9.83304 8.0768
2939 3 27.1497 10.6891 9.05266
2935 2 28.631 11.5577 6.81008
1538 1 28.6318 9.83349 8.07582
2811 1 0.35198 12.3878 8.09373
2810 2 0.372837 14.142 6.85838
2812 1 1.85815 15.0446 8.10321
2814 7 1.85232 13.2783 8.97177
2825 1 3.36123 12.4083 8.04406
2824 2 3.35015 14.1434 6.8713
2826 1 4.80821 15.0415 8.10039
2828 3 4.82878 13.2783 8.97177
2839 1 6.36877 12.4272 8.11859
2838 2 6.31468 14.0617 6.96381
2840 1 7.75756 15.0067 8.14862
2842 3 7.82827 13.2792 9.09616
2853 1 9.29851 12.3835 8.1365
2852 2 9.27028 14.1402 6.90025
2854 1 10.7171 14.9545 8.15603
2856 3 10.7639 13.2501 9.12471
2867 1 12.2477 12.4495 8.12049
2866 2 12.2649 14.1392 6.91039
2868 1 13.8015 14.9571 8.15756
2870 3 13.7447 13.2453 9.11328
2881 1 15.2323 12.3869 8.14754
2880 2 15.2466 14.1217 6.89501
2882 1 16.7503 14.9545 8.16358
2884 3 16.7364 13.226 9.10937
2895 1 18.2384 12.4078 8.1298
2894 2 18.2337 14.13 6.8882
2896 1 19.7303 14.9922 8.1721
2898 3 19.7339 13.2516 9.09852
2909 1 21.2118 12.3983 8.11144
2908 2 21.209 14.1316 6.86979
2910 1 22.71 14.9699 8.13429
2912 3 22.7037 13.2429 9.08399
2923 1 24.1817 12.3975 8.09232
2922 2 24.1811 14.1298 6.84603
2924 1 25.6771 14.9777 8.11768
2926 3 25.6679 13.2503 9.06708
2937 1 27.1513 12.4049 8.08326
2936 2 27.152 14.1343 6.83132
2938 1 28.6342 14.9811 8.10092
2940 3 28.6307 13.2613 9.06386
4211 1 0.330326 17.5782 8.12464
4213 3 0.358761 15.8524 9.07675
4209 2 1.84389 16.7141 6.85403
4225 1 3.32046 17.576 8.13939
4227 3 3.33427 15.8627 9.105
4223 2 4.75591 16.7549 6.93553
4239 1 6.24938 17.5399 8.10933
4241 3 6.26755 15.8609 9.11616
4237 2 7.86124 16.7564 6.99015
4255 3 9.25606 15.8166 9.14008
4253 1 9.32031 17.5335 8.18881
4251 2 10.7694 16.7064 6.93421
4267 1 12.2131 17.5942 8.15573
4269 3 12.2699 15.856 8.97177
4265 2 13.7503 16.7053 6.94345
4281 1 15.267 17.5022 8.18519
4283 3 15.2717 15.7944 9.15281
4279 2 16.7353 16.7013 6.92925
4295 1 18.1889 17.533 8.18968
4297 3 18.225 15.8174 9.14329
4293 2 19.7194 16.7189 6.93079
4309 1 21.2662 17.5421 8.1753
4311 3 21.2411 15.8257 9.12802
4307 2 22.7024 16.7129 6.89771
4323 1 24.2136 17.5499 8.15822
4325 3 24.1977 15.8223 9.10723
4321 2 25.6777 16.7148 6.86969
4337 1 27.1778 17.5652 8.13212
4339 3 27.1609 15.8403 9.08706
4335 2 28.6441 16.7218 6.84881
5613 3 0.36409 21.0113 8.97177
4210 2 0.347214 19.2727 6.85229
4212 1 1.88415 20.1062 8.08203
4214 3 1.8241 18.4275 9.09503
5627 3 3.30891 20.9683 9.11109
4224 2 3.3379 19.2145 6.93961
4226 1 4.81718 20.1479 8.14831
4228 3 4.81018 18.4246 9.10898
5641 3 6.2972 20.9911 9.1454
4238 2 6.3001 19.2812 6.91072
4240 1 7.78835 20.1758 8.16731
4242 7 7.80523 18.4336 8.97177
5655 3 9.25436 21.0063 9.17126
4252 2 9.27536 19.2854 6.94539
4254 1 10.7703 20.1571 8.23594
4256 3 10.7676 18.4216 9.1712
5669 3 12.2792 21.0111 9.18051
4266 2 12.2636 19.2916 6.95582
4268 1 13.7578 20.1837 8.19427
4270 7 13.7581 18.4336 8.97177
5683 3 15.2363 21.0068 9.1848
4280 2 15.2378 19.2812 6.96065
4282 1 16.6866 20.0861 8.23268
4284 3 16.7158 18.3655 9.18226
5697 3 18.2228 21.0113 8.97177
4294 2 18.2228 19.2949 6.96476
4296 1 19.7111 20.1459 8.13947
4298 7 19.7111 18.4336 8.97177
5711 3 21.1993 21.0113 8.97177
4308 2 21.2048 19.2913 6.95734
4310 1 22.7476 20.1118 8.19052
4312 3 22.7406 18.3979 9.14873
4322 2 24.1899 19.2936 6.91959
4324 1 25.6815 20.1385 8.16501
4326 3 25.7008 18.4147 9.1202
5739 3 27.171 20.9808 9.13722
4336 2 27.171 19.2949 6.88523
4338 1 28.6551 20.1584 8.13052
4340 3 28.6596 18.4377 9.095
5611 1 0.335806 22.7511 8.10819
5609 2 1.76671 21.8788 6.94226
5614 3 1.82238 23.5484 9.10833
5625 1 3.25927 22.6544 8.11184
5623 2 4.88789 21.8933 6.98646
5628 3 4.82878 23.589 8.97177
5639 1 6.33321 22.6965 8.17821
5637 2 7.79323 21.8575 6.9334
5642 3 7.78778 23.5554 9.17504
5653 1 9.25122 22.7023 8.18749
5651 2 10.782 21.8707 6.9582
5656 7 10.7817 23.589 8.97177
5667 1 12.3213 22.7043 8.19351
5665 2 13.7734 21.8698 6.95082
5670 3 13.7932 23.5429 9.18384
5681 1 15.2824 22.7116 8.19668
5679 2 16.7431 21.7747 7.05625
5695 1 18.229 22.7915 8.21612
5693 2 19.7008 21.8815 6.98713
5709 1 21.2066 22.7635 8.22529
5707 2 22.6163 21.8261 6.93427
5723 5 24.1757 22.7297 7.91623
5721 2 25.7544 21.8204 6.87943
5737 5 27.1198 22.6829 8.16324
5735 2 28.5867 21.9137 6.98483
5740 7 28.6404 23.589 8.97177
7013 3 0.346631 26.1194 9.10207
5610 2 0.367587 24.4194 6.86362
7009 2 1.84866 27.0048 6.90053
5612 1 1.85897 25.2764 8.16179
7027 3 3.33139 26.1555 9.13777
5624 2 3.3354 24.4089 6.90444
7023 2 4.82141 27.0131 6.92698
5626 1 4.81396 25.3224 8.16237
7041 3 6.27879 26.1564 9.16433
5638 2 6.30221 24.4302 6.939
7037 2 7.80126 27.0167 6.95684
5640 1 7.78791 25.2894 8.23303
7055 3 9.28183 26.1546 9.18508
5652 2 9.29432 24.4389 6.95868
7051 2 10.7837 27.0214 6.97379
5654 1 10.7802 25.3509 8.20715
5666 2 12.2754 24.4356 6.96053
7065 2 13.7747 27.0102 6.98769
5668 1 13.7494 25.2755 8.24389
5680 2 15.1888 24.4717 7.03313
7079 2 16.7513 27.0107 7.01361
5682 1 16.6875 25.2638 8.20197
7097 7 18.2228 26.1666 8.97177
5694 2 18.2999 24.496 7.06664
7093 2 19.7213 27.0251 7.02087
5696 1 19.7613 25.2944 8.25017
5708 2 21.2121 24.4521 6.99968
7107 2 22.7108 27.0479 7.02654
5710 1 22.6821 25.2976 8.24343
7125 3 24.1757 26.1666 8.97177
5722 2 24.1964 24.5482 6.95116
7121 2 25.693 27.0379 6.99534
5724 1 25.7461 25.2647 8.21877
7139 3 27.2051 26.1592 9.18256
5736 2 27.1827 24.4374 6.95345
7135 2 28.6705 27.0347 6.94871
5738 1 28.6829 25.3472 8.18181
7011 1 0.349499 27.7968 8.102
7010 2 0.356911 29.5983 6.89114
7014 3 1.85232 28.7443 8.97177
7025 1 3.35346 27.8533 8.15581
7024 2 3.32423 29.6028 6.91611
7028 3 4.79731 28.7289 9.15212
7039 1 6.26434 27.8565 8.18634
7038 2 6.30678 29.6055 6.94503
7042 3 7.80523 28.7443 8.97177
7053 1 9.27591 27.8273 8.18058
7052 2 9.28824 29.6002 6.99272
7056 7 10.7817 28.7443 8.97177
7067 1 12.3154 27.843 8.23082
7066 2 12.2719 29.5873 7.01209
7081 1 15.2696 27.8587 8.28371
7080 2 15.2613 29.5952 7.03014
7095 1 18.2495 27.9342 8.27084
7094 2 18.2429 29.6117 7.03827
7108 2 21.1473 29.5495 6.96961
7109 1 21.1931 27.8657 8.25572
7112 7 22.6875 28.7443 8.97177
7123 1 24.2651 27.9618 8.19963
7122 2 24.2982 29.5684 6.93881
7137 1 27.1859 27.8878 8.23515
7136 2 27.1867 29.6123 6.96221
7140 3 28.6861 28.743 9.18616
5725 7 24.2132 20.8526 9.22752
5684 3 16.7306 23.5824 9.20375
5698 3 19.7243 23.5874 9.21131
5712 3 22.5783 23.654 9.27118
5726 7 25.794 23.6106 9.23668
7069 3 12.2691 26.1459 9.21053
7083 3 15.241 26.1201 9.21482
7111 3 21.2221 26.1601 9.22904
7070 3 13.7635 28.701 9.23615
7084 3 16.7498 28.7301 9.25148
7098 3 19.7475 28.7414 9.24977
7126 3 25.7216 28.7743 9.21083
8401 7 0.36409 31.322 2.03646
8415 7 3.34055 31.322 2.03646
8429 7 6.317 31.322 2.03646
8443 3 9.3775 31.3341 2.31116
8457 3 12.3167 31.3455 2.33067
8471 3 15.2702 31.3397 2.35102
8485 3 18.2549 31.344 2.35398
8499 3 21.2048 31.354 2.34552
8513 3 24.1599 31.321 2.33329
8527 3 27.1259 31.3818 2.26562
8402 7 1.89905 33.9294 2.20786
8416 3 4.85871 33.9371 2.23743
8430 7 7.80523 33.8996 2.03646
8444 3 10.7917 33.8761 2.29037
8458 7 13.8324 33.8622 2.31929
8472 7 16.7346 33.8996 2.03646
8486 3 19.6738 33.8911 2.32026
8500 7 22.7441 33.8714 2.3122
8514 7 25.664 33.8996 2.03646
8528 3 28.6353 33.8785 2.28883
9801 7 0.418508 36.5414 2.20314
9802 7 1.95485 39.0589 2.185
9815 7 3.34055 36.4773 2.03646
9816 3 4.87616 39.1075 2.24567
9829 3 6.35592 36.5089 2.24878
9830 3 7.85894 39.0468 2.26213
9843 3 9.36942 36.4627 2.28825
9844 3 10.8237 39.0122 2.29193
9857 3 12.3084 36.5773 2.2597
9858 3 13.7813 39.027 2.31718
9871 7 15.2464 36.4773 2.03646
9872 3 16.791 39.0571 2.33558
9885 3 18.2926 36.5002 2.34455
9886 3 19.7438 39.0638 2.35787
9899 3 21.2214 36.6264 2.28425
9900 3 22.7087 39.0775 2.36096
9913 7 24.1757 36.4773 2.03646
9914 7 25.615 39.0484 2.30837
9927 7 27.1522 36.4773 2.03646
9928 7 28.6404 39.055 2.03646
11201 7 0.436679 41.7128 2.1769
11215 3 3.38621 41.6605 2.2357
11229 3 6.34531 41.688 2.24493
11243 7 9.29346 41.6326 2.03646
11257 7 12.2699 41.6326 2.03646
11271 3 15.2991 41.6296 2.31154
11285 3 18.2848 41.6381 2.3386
11299 3 21.2101 41.6426 2.34293
11313 3 24.1875 41.6276 2.3345
11327 7 27.1522 41.6326 2.03646
11202 3 1.92916 44.2372 2.23235
11216 3 4.78833 44.1853 2.18631
11230 3 7.81661 44.2361 2.26048
11244 7 10.7817 44.2103 2.03646
11258 3 13.8381 44.2089 2.28549
11272 3 16.7995 44.2009 2.31532
11286 3 19.7467 44.1914 2.32216
11300 3 22.694 44.202 2.32762
11314 3 25.6631 44.1664 2.32199
11328 3 28.6702 44.1787 2.30678
12601 3 0.429694 46.8105 2.18942
12615 3 3.38904 46.8175 2.23509
12629 7 6.317 46.788 2.03646
12643 3 9.32254 46.7669 2.25863
12657 3 12.3278 46.7556 2.26762
12671 3 15.2925 46.7615 2.28228
12685 3 18.2514 46.7339 2.29028
12699 3 21.2208 46.7508 2.29992
12713 3 24.1993 46.7592 2.29243
12727 3 27.1637 46.7532 2.29435
12602 3 1.9256 49.3962 2.21725
12616 3 4.85337 49.3361 2.25165
12630 3 7.814 49.3353 2.26203
12644 7 10.7817 49.3656 2.03646
12658 7 13.7842 49.3719 2.26701
12672 7 16.7346 49.3656 2.03646
12686 3 19.7467 49.3586 2.26195
12700 3 22.7247 49.329 2.26946
12714 7 25.7042 49.3518 2.28447
12728 3 28.6412 49.3554 2.27423
14001 3 0.441399 51.9615 2.19824
14015 3 3.37552 51.9604 2.23156
14029 7 6.317 51.9433 2.03646
14043 3 9.32918 51.9095 2.246
14057 3 12.222 51.8552 2.20239
14071 7 15.2464 51.9433 2.03646
14085 3 18.237 51.9867 2.26345
14099 3 21.1993 51.9433 2.03646
14113 3 24.2574 51.9418 2.27822
14127 3 27.0873 51.8924 2.22431
15401 3 0.514156 57.0358 2.13507
14002 3 1.8138 54.4953 2.18459
14016 3 4.82885 54.5323 2.22617
15429 3 6.29647 57.0852 2.22819
14030 7 7.80523 54.521 2.03646
14044 7 10.7817 54.521 2.03646
15457 7 12.2699 57.0986 2.03646
14058 3 13.8222 54.5959 2.2237
15471 3 15.2728 57.1231 2.27419
14072 3 16.7659 54.5232 2.26055
15485 7 18.2228 57.0986 2.03646
14086 3 19.7123 54.5228 2.24681
15499 7 21.1993 57.0986 2.03646
14100 3 22.6875 54.521 2.03646
15513 7 24.1757 57.0986 2.03646
14114 3 25.7096 54.5052 2.26348
15527 3 27.1619 57.0766 2.26018
14128 3 28.6285 54.6327 2.19332
15402 3 1.8902 59.6247 2.20098
15415 3 3.34199 57.1771 2.19023
15416 3 4.85337 59.6187 2.21614
15430 3 7.83104 59.678 2.23982
15443 3 9.30336 57.1342 2.22069
15444 3 10.7864 59.7107 2.24693
15458 3 13.7753 59.7035 2.27836
15472 3 16.7348 59.7065 2.27559
15486 3 19.724 59.72 2.27283
15500 3 22.6998 59.7026 2.26783
15514 3 25.6857 59.6992 2.25205
15528 3 28.6337 59.6817 2.2411
8405 2 0.387289 33.0691 4.41521
8407 1 0.373354 31.3246 5.62618
8403 5 1.88362 32.2583 3.21558
7006 2 1.87451 30.4668 4.42214
8419 2 3.36417 33.0635 4.45159
8421 1 3.34965 31.3247 5.66003
8417 1 4.87929 32.2681 3.24888
7020 2 4.84312 30.4735 4.45169
8433 2 6.34599 33.0632 4.47666
8435 1 6.31769 31.3304 5.69531
8431 1 7.90922 32.1636 3.29398
7034 2 7.82337 30.4686 4.50264
8445 1 10.8373 32.2097 3.30298
8447 2 9.33079 33.0498 4.53499
8449 1 9.3089 31.3218 5.77086
7048 2 10.8024 30.4648 4.54177
8459 1 13.7865 32.197 3.3281
8461 2 12.2982 32.9494 4.63589
8463 1 12.2887 31.3104 5.7898
7062 2 13.7872 30.4653 4.5669
8473 1 16.7605 32.1516 3.3368
8475 2 15.2636 33.05 4.58392
8477 1 15.2637 31.3298 5.82433
7076 2 16.7589 30.4744 4.58213
8487 1 19.731 32.2204 3.32561
8489 2 18.2451 33.0619 4.57643
8491 1 18.2468 31.338 5.82685
7090 2 19.7288 30.4833 4.57801
8501 1 22.6938 32.2027 3.31688
8503 2 21.2142 32.9509 4.6362
8505 1 21.2305 31.3186 5.8238