ITEM: TIMESTEP
100000
ITEM: NUMBER OF ATOMS
81200
ITEM: BOX BOUNDS pp pp pp
3.0659171834622340e-01 2.9799290417767986e+02
2.9532876786360046e-01 2.9935238320630447e+02
0.0000000000000000e+00 4.9031656433928198e+01
ITEM: ATOMS id type x y z
1 3 0.339212 0.325546 2.11708
2 3 1.85177 2.93423 2.09133
15 3 3.30775 0.367992 2.10362
16 3 4.79662 2.92818 2.08671
29 7 6.29753 0.366128 2.03646
30 3 7.80296 2.95732 2.08483
43 3 9.26921 0.374775 2.0822
44 3 10.762 2.93027 2.0721
45 1 10.7563 1.22307 3.05389
57 3 12.2272 0.354441 2.07473
58 3 13.7353 2.91753 2.07169
59 1 13.7319 1.19724 3.03187
71 3 15.2434 0.379117 2.06841
72 3 16.6942 2.95651 2.07116
73 1 16.682 1.2638 3.06393
85 7 18.205 0.366128 2.03646
86 3 19.6897 2.96955 2.07937
99 7 21.1818 0.366128 2.03646
100 7 22.6703 2.94421 2.03646
113 3 24.1627 0.495491 2.04087
114 3 25.632 2.96126 2.04211
115 1 25.6115 1.30503 3.04733
127 3 27.1356 0.366128 2.03646
128 3 28.6339 2.94157 2.07063
1401 3 0.345777 5.52022 2.08887
1415 7 3.32067 5.52228 2.03646
1429 3 6.31244 5.54316 2.08599
32 1 6.29266 3.80833 3.02628
1443 3 9.27264 5.55842 2.07791
46 1 9.29292 3.83174 3.03133
1457 7 12.2513 5.52228 2.03646
60 1 12.2522 3.75136 3.04929
1471 3 15.2396 5.5421 2.07262
74 1 15.2055 3.81803 3.03023
1485 3 18.1884 5.51755 2.0542
88 1 18.188 3.80788 3.03672
1499 3 21.1833 5.52845 2.0898
1513 3 24.1733 5.4926 2.03157
116 1 24.197 3.82431 3.05988
1527 3 27.1265 5.52237 2.04616
130 1 27.1298 3.80181 3.00927
1402 3 1.83346 8.13638 2.09611
1416 3 4.84375 8.12301 2.09738
1430 7 7.7975 8.13336 2.10568
1431 1 7.79111 6.40664 3.05783
1444 3 10.7478 8.13201 2.09814
1458 3 13.7572 8.12879 2.09669
1459 1 13.7915 6.42088 3.0629
1472 3 16.7267 8.09981 2.08527
1474 1 15.2525 8.97965 3.05556
1473 1 16.7256 6.38392 3.05174
1486 3 19.6895 8.11116 2.09603
1487 1 19.6586 6.36753 3.01162
1502 1 21.1306 9.06307 3.02957
1500 7 22.6703 8.10036 2.03646
1501 1 22.7233 6.30974 3.02419
1514 3 25.6381 8.11201 2.05252
1515 1 25.6357 6.38628 3.00452
1516 1 24.1915 8.98938 3.0506
1528 3 28.6081 8.09254 2.05394
1529 1 28.6013 6.38273 3.02995
1530 1 27.1267 8.92068 3.03936
2801 3 0.385054 10.7027 2.09794
2815 3 3.34991 10.677 2.11086
2829 3 6.31216 10.7106 2.11613
2843 3 9.27636 10.7138 2.11982
2857 3 12.2439 10.6755 2.11171
2871 3 15.2023 10.7016 2.0995
2885 7 18.205 10.6784 2.03646
2899 3 21.1593 10.7318 2.04603
2901 1 22.6628 11.5103 3.03774
2913 3 24.1514 10.685 2.0617
2915 1 25.5877 11.6058 3.03125
2927 7 27.1356 10.6784 2.03646
2802 7 1.83223 13.2565 2.03646
2816 3 4.84749 13.2736 2.13281
2830 3 7.76726 13.2871 2.13555
2844 3 10.7509 13.2843 2.12504
2858 7 13.7397 13.2565 2.03646
2872 7 16.6991 13.3052 2.1063
2886 3 19.6874 13.3194 2.09151
2900 7 22.6703 13.2565 2.03646
2914 3 25.6094 13.3151 2.06286
2930 1 27.0848 14.15 3.04855
2928 7 28.624 13.2565 2.03646
4201 7 0.343803 15.8346 2.03646
4215 3 3.32067 15.8346 2.03646
4229 3 6.31544 15.854 2.14136
4243 7 9.25839 15.8645 2.15005
4257 3 12.2275 15.8647 2.14036
4271 7 15.2419 15.8721 2.13012
4285 3 18.1983 15.8757 2.13053
4299 3 21.1491 15.8953 2.11174
4313 3 24.1518 15.8941 2.09277
4315 1 25.646 16.7472 3.051
4327 3 27.1093 15.8543 2.07818
4329 1 28.6102 16.6576 3.05635
5601 3 0.364643 20.9349 2.10614
4202 3 1.84621 18.418 2.12528
5615 3 3.33009 20.9609 2.12845
4216 3 4.82337 18.404 2.13603
5629 3 6.29279 21.006 2.14806
4230 3 7.77094 18.3833 2.12682
5643 3 9.29503 20.9731 2.17143
4244 3 10.7594 18.4293 2.16919
5657 3 12.2524 20.9611 2.1629
4258 3 13.7717 18.4112 2.13057
5671 3 15.2455 21.0097 2.17691
4272 3 16.7257 18.4512 2.15176
5685 3 18.1842 21.0404 2.18434
4286 3 19.6761 18.4678 2.1493
5699 3 21.1735 21.0332 2.16906
4300 3 22.6464 18.4639 2.13277
5713 3 24.1365 21.0438 2.15481
4314 3 25.6079 18.4767 2.10469
5727 3 27.0949 21.0391 2.13087
4328 7 28.624 18.4127 2.03646
5602 7 1.83223 23.5688 2.03646
5616 3 4.84178 23.5431 2.13708
5630 3 7.7977 23.5553 2.14847
5644 7 10.7628 23.5688 2.03646
5658 7 13.7397 23.5688 2.03646
5672 3 16.7408 23.6046 2.18996
5686 3 19.6849 23.6025 2.19757
5700 3 22.6586 23.6004 2.18299
5714 3 25.612 23.6145 2.16192
5728 7 28.624 23.5688 2.03646
7001 3 0.373601 26.1276 2.09305
7015 3 3.36007 26.1246 2.1141
7029 3 6.31204 26.1374 2.14353
7043 7 9.27439 26.1469 2.03646
7057 7 12.2513 26.1469 2.03646
7071 3 15.2827 26.1631 2.18273
7085 3 18.2273 26.1425 2.19997
7099 3 21.1887 26.1597 2.19445
7113 3 24.1551 26.171 2.19093
7127 3 27.1045 26.1701 2.1545
7002 3 1.86696 28.6786 2.10164
7016 3 4.82791 28.6893 2.12653
7030 3 7.78943 28.7197 2.15492
7044 3 10.789 28.7427 2.17342
7058 3 13.7815 28.7358 2.18672
7072 3 16.7434 28.7457 2.19475
7086 3 19.7081 28.7341 2.199
7100 3 22.6682 28.7405 2.19534
7114 3 25.534 28.6876 2.11566
7128 7 28.7179 28.6664 2.08274
3 1 1.81604 1.22171 3.06556
5 2 0.345773 2.08498 4.32844
7 1 0.36343 0.370168 5.58722
8 1 1.84002 2.94892 5.55796
17 1 4.76964 1.23898 3.08225
19 2 3.32429 2.08487 4.32647
21 1 3.33555 0.367809 5.56315
22 1 4.82327 2.95019 5.54659
31 1 7.82933 1.26299 3.07607
33 2 6.30116 2.08222 4.30703
35 1 6.31996 0.359826 5.55291
36 1 7.79104 2.95995 5.53256
47 2 9.28767 2.09419 4.31762
49 1 9.25949 0.353174 5.56366
50 1 10.7396 2.93274 5.5108
61 2 12.2504 2.07356 4.29677
63 1 12.2463 0.357989 5.53532
64 1 13.7675 2.92864 5.50606
75 2 15.2182 2.08982 4.31017
77 1 15.2289 0.360253 5.53368
78 1 16.7244 2.94656 5.54085
87 1 19.7199 1.29874 3.09069
89 2 18.2129 2.08879 4.30142
91 1 18.2224 0.360805 5.517
92 1 19.7032 2.95028 5.53733
101 1 22.7172 1.19203 3.11942
103 2 21.194 2.09582 4.30738
105 1 21.2053 0.345033 5.54216
106 1 22.6838 2.93907 5.53248
117 2 24.1624 2.08241 4.30971
119 1 24.1425 0.320822 5.52507
120 1 25.6552 2.90515 5.51814
129 1 28.6392 1.2508 3.07119
131 2 27.1224 2.15968 4.21065
133 1 27.1356 0.366128 5.50412
134 1 28.5929 2.91317 5.51114
147 1 30.0658 0.366115 5.53711
4 1 0.405156 3.82475 3.07452
1407 1 0.345116 5.52429 5.54988
6 2 1.84332 4.67338 4.31362
18 1 3.32786 3.76464 3.07919
1421 1 3.32833 5.52996 5.53036
20 2 4.81456 4.67289 4.3085
1435 1 6.30472 5.52904 5.54906
34 2 7.7917 4.67845 4.30762
1449 1 9.28321 5.53121 5.54512
48 2 10.7681 4.67715 4.29031
1463 1 12.257 5.55452 5.48833
62 2 13.742 4.67175 4.28721
1477 1 15.2408 5.5195 5.54106
76 2 16.7192 4.66662 4.31051
102 1 21.1431 3.83267 3.0726
1491 1 18.2201 5.52825 5.54129
90 2 19.6964 4.66926 4.31234
1505 5 21.2105 5.52094 5.5568
104 2 22.683 4.65812 4.29784
1519 1 24.144 5.54643 5.51383
118 2 25.6385 4.65879 4.29434
1533 1 27.1166 5.51841 5.51126
132 2 28.6118 4.66007 4.29195
1404 1 0.376155 9.00507 3.07973
1403 1 1.77941 6.43249 3.07004
1405 2 0.335425 7.25218 4.31516
1408 1 1.8386 8.10817 5.55547
1418 1 3.34145 8.95492 3.06602
1417 1 4.86252 6.42117 3.0747
1419 2 3.32734 7.24658 4.31763
1422 1 4.81602 8.10832 5.56389
1432 1 6.31394 8.99103 3.07875
1433 2 6.30635 7.25661 4.32802
1436 1 7.78973 8.10869 5.56122
1446 1 9.27685 8.99429 3.083
1445 1 10.7218 6.42956 3.07375
1447 2 9.28278 7.26066 4.3294
1450 1 10.7738 8.12263 5.5817
1460 1 12.253 8.95518 3.06974
1461 2 12.2535 7.23712 4.31797
1464 1 13.7555 8.09889 5.5449
1475 2 15.2456 7.24761 4.31717
1478 1 16.7341 8.10522 5.56574
1488 1 18.2026 8.92571 3.07993
1489 2 18.2133 7.24868 4.32146
1492 1 19.7113 8.13089 5.56208
1503 6 21.1818 7.241 4.27785
1506 5 22.6703 8.10036 5.50412
1517 2 24.2107 7.20512 4.20157
1520 1 25.5989 8.10332 5.50375
1531 2 27.1173 7.24503 4.28764
1534 1 28.6061 8.10397 5.51807
2803 1 1.86814 11.5029 3.09715
2807 1 0.348276 10.6907 5.55147
1406 2 1.84561 9.82777 4.33351
2817 1 4.82071 11.5526 3.09054
2821 1 3.33316 10.6895 5.58581
1420 2 4.82164 9.83299 4.34947
2831 1 7.79176 11.5666 3.09704
2835 1 6.30521 10.6959 5.5977
1434 2 7.79546 9.84577 4.35213
2845 1 10.7732 11.5602 3.08318
2849 1 9.2911 10.6897 5.59534
1448 2 10.7693 9.83405 4.35299
2859 1 13.7207 11.4987 3.10664
2863 1 12.2408 10.678 5.60983
1462 2 13.7392 9.82684 4.33688
2873 1 16.652 11.5975 3.07475
2877 1 15.229 10.6825 5.56139
1476 2 16.725 9.83524 4.31743
2887 1 19.7347 11.615 3.06511
2891 1 18.2152 10.6879 5.52546
1490 2 19.693 9.8506 4.30142
2905 1 21.1978 10.6623 5.52921
1504 2 22.6595 9.89246 4.21199
2919 1 24.1342 10.6549 5.50886
1518 2 25.6347 9.82976 4.27413
2929 5 28.6748 11.5183 3.0668
2933 1 27.1185 10.6839 5.49063
1532 2 28.612 9.82416 4.28094
2805 2 0.358981 12.4115 4.32778
2804 1 0.340591 14.1021 3.10638
2806 2 1.84407 14.9866 4.3254
2808 1 1.83934 13.2725 5.55919
2819 2 3.33902 12.4092 4.35091
2818 1 3.379 14.0964 3.12219
2820 2 4.75112 14.9475 4.29285
2822 1 4.83257 13.2937 5.59544
2832 1 6.30144 14.1515 3.13079
2833 2 6.30353 12.4215 4.36832
2834 2 7.84525 14.95 4.30659
2836 1 7.76909 13.2956 5.59042
2846 1 9.26399 14.1354 3.09608
2860 1 12.1994 14.1625 3.11577
2847 2 9.26877 12.4113 4.36016
2848 2 10.749 14.9967 4.37415
2850 1 10.7542 13.2747 5.57764
2861 2 12.2508 12.4062 4.34738
2862 2 13.7316 14.9843 4.35852
2864 1 13.7321 13.2579 5.56384
2874 5 15.2577 14.1735 3.11139
2875 2 15.2141 12.4146 4.33469
2876 2 16.7147 14.9965 4.35871
2878 1 16.7162 13.2611 5.57107
2888 1 18.1945 14.1451 3.07571
2902 1 21.1315 14.1934 3.08832
2889 2 18.2013 12.4153 4.31941
2890 2 19.6864 15.0054 4.34952
2892 1 19.6964 13.2666 5.56153
2903 2 21.1837 12.4227 4.30815
2904 2 22.662 15.0029 4.32249
2906 1 22.6683 13.2632 5.51989
2916 1 24.1741 14.1911 3.06789
2917 2 24.1434 12.4172 4.28902
2918 2 25.6405 15.0022 4.30649
2920 1 25.6404 13.2599 5.52303
2931 2 27.1277 12.4077 4.27058
2932 2 28.6219 14.9836 4.28822
2934 1 28.6157 13.2647 5.49732
4205 2 0.341631 17.5417 4.33862
4207 1 0.316832 15.838 5.5394
4203 1 1.84654 16.7388 3.12055
4219 2 3.3275 17.5488 4.33665
4221 1 3.34401 15.8394 5.54534
4217 1 4.87267 16.7208 3.14458
4231 1 7.77708 16.6973 3.14862
4233 2 6.28653 17.6341 4.32424
4235 1 6.29753 15.8346 5.50412
4249 1 9.22694 15.8453 5.60492
4245 1 10.7476 16.7089 3.12737
4247 2 9.25227 17.552 4.39566
4259 1 13.7369 16.6959 3.10094
4261 2 12.2517 17.5534 4.39128
4263 1 12.2451 15.8432 5.61856
4273 1 16.7182 16.73 3.11142
4275 2 15.2269 17.5673 4.38391
4277 1 15.2216 15.8412 5.59481
4287 1 19.6758 16.7438 3.1044
4289 2 18.2009 17.5819 4.38647
4291 1 18.2076 15.8468 5.59481
4301 1 22.6569 16.7299 3.07042
4303 2 21.1743 17.5834 4.36967
4305 1 21.1828 15.8532 5.58085
4317 2 24.1525 17.5835 4.34173
4319 1 24.158 15.8513 5.55224
4331 2 27.1395 17.5805 4.31548
4333 1 27.1369 15.8524 5.53344
4204 1 0.318242 19.2236 3.0733
5607 1 0.354709 20.9591 5.56245
4206 2 1.75001 20.0521 4.2665
4208 1 1.79247 18.4081 5.5278
4218 1 3.33403 19.2566 3.10881
5621 5 3.32067 20.9908 5.50412
4220 2 4.87491 20.0797 4.29205
4222 1 4.82943 18.4077 5.5416
5635 1 6.25974 20.9768 5.59539
4232 1 6.30483 19.2775 3.0956
4246 1 9.22451 19.2396 3.10068
4234 2 7.7777 20.1258 4.39095
4236 1 7.75729 18.3897 5.62485
5649 1 9.24954 20.9979 5.63506
4248 2 10.7628 20.1314 4.27785
4250 1 10.7485 18.3916 5.64613
4260 1 12.2972 19.2341 3.10217
5663 1 12.2772 21.0108 5.63959
4262 2 13.7505 20.1337 4.39664
4264 1 13.7418 18.4173 5.63109
4274 1 15.2318 19.2851 3.12798
5677 1 15.2493 21.024 5.62091
4276 2 16.7152 20.1609 4.40652
4278 1 16.7165 18.4297 5.6211
4288 1 18.197 19.3156 3.13795
5691 1 18.1819 21.0356 5.65455
4290 2 19.681 20.1575 4.4122
4292 1 19.6899 18.431 5.63187
4302 1 21.1678 19.3095 3.12416
5705 1 21.1748 21.0071 5.64468
4304 2 22.6661 20.1605 4.39221
4306 1 22.6702 18.4326 5.59323
4316 1 24.1341 19.3169 3.10451
4330 1 27.0788 19.3271 3.08681
5719 1 24.1629 21.0216 5.63858
4318 2 25.6363 20.1622 4.36561
4320 1 25.6531 18.4311 5.56474
5733 1 27.179 20.9997 5.57894
4332 2 28.5547 20.1126 4.26659
4334 1 28.6387 18.4555 5.53085
5605 2 0.358599 22.6711 4.30759
5603 1 1.83518 21.7547 3.11724
5608 1 1.84824 23.5063 5.53996
5617 1 4.79098 21.8345 3.12158
5619 2 3.32236 22.7634 4.27754
5622 1 4.79093 23.5158 5.60801
5631 1 7.79545 21.8393 3.11498
5633 2 6.29097 22.6916 4.37809
5636 1 7.78346 23.5608 5.60808
5645 1 10.78 21.8672 3.08874
5647 2 9.27969 22.7111 4.37915
5650 1 10.773 23.5695 5.6162
5659 1 13.7313 21.8109 3.13545
5661 2 12.2618 22.7261 4.38565
5664 1 13.7815 23.5709 5.59961
5675 2 15.1548 22.6808 4.32004
5673 1 16.7044 21.8953 3.16788
5678 5 16.7165 23.5688 5.50412
5687 1 19.686 21.8768 3.14927
5689 2 18.2663 22.6922 4.35688
5692 1 19.6651 23.5778 5.64837
5701 1 22.6571 21.8833 3.14963
5703 2 21.1799 22.7358 4.42798
5706 1 22.6888 23.5732 5.67885
5715 1 25.6272 21.8942 3.12481
5717 2 24.1532 22.7325 4.41653
5720 1 25.6435 23.5707 5.64526
5731 2 27.1365 22.7254 4.37325
5729 1 28.5648 21.8213 3.15232
5734 1 28.6489 23.5425 5.58578
7003 1 1.85931 26.9685 3.07499
7007 1 0.350213 26.117 5.55021
5604 1 0.361708 24.4564 3.10248
5606 2 1.84149 25.2532 4.33405
7017 1 4.82242 26.9862 3.11088
5618 1 3.37914 24.4276 3.10032
7021 1 3.31707 26.1185 5.57812
5620 2 4.81882 25.2628 4.3718
5632 1 6.31273 24.4185 3.11107
7031 1 7.7576 27.0213 3.13448
7035 1 6.3004 26.1289 5.60359
5634 2 7.79356 25.2786 4.37515
5646 1 9.23958 24.3954 3.16351
7049 1 9.28089 26.1385 5.59749
7045 1 10.7848 27.0681 3.17777
5648 2 10.7728 25.29 4.38076
7059 1 13.8133 27.0284 3.15546
7063 1 12.2657 26.1428 5.60991
5660 5 12.2556 24.4434 3.21715
5662 2 13.7612 25.2905 4.39533
7073 1 16.7534 27.0282 3.16208
7077 1 15.2559 26.1196 5.64
5674 1 15.2919 24.4733 3.18287
5676 2 16.7345 25.374 4.36061
5688 1 18.2079 24.4417 3.19697
7087 1 19.7049 27.0166 3.16682
7091 1 18.2012 26.1254 5.67285
5690 2 19.6946 25.2967 4.43738
5702 1 21.1778 24.4467 3.16908
7101 1 22.6702 27.0249 3.16497
7105 1 21.1938 26.1571 5.65532
5704 2 22.6702 25.3003 4.43214
7115 1 25.6441 27.038 3.14842
5716 1 24.1398 24.4564 3.16152
5730 1 27.0807 24.4725 3.14054
7119 1 24.1697 26.1684 5.66211
5718 2 25.6435 25.2991 4.40427
7129 1 28.6119 27.011 3.10735
7133 1 27.1509 26.1397 5.61505
5732 2 28.6279 25.2825 4.3647
7004 1 0.383285 29.5233 3.07137
7005 2 0.360157 27.8454 4.32795
7008 1 1.8328 28.7188 5.57672
7018 1 3.33642 29.5306 3.08709
7019 2 3.32859 27.85 4.35128
7022 1 4.80713 28.7268 5.58722
7032 1 6.29236 29.5423 3.11836
7033 2 6.30156 27.8595 4.37427
7036 1 7.79152 28.7271 5.6221
7046 1 9.27999 29.579 3.12377
7047 2 9.28456 27.8643 4.38825
7050 1 10.7676 28.7254 5.64436
7060 1 12.2812 29.5891 3.14195
7061 2 12.2707 27.8667 4.40067
7064 1 13.7574 28.7178 5.64598
7074 1 15.2553 29.5933 3.17087
7075 2 15.2501 27.8658 4.42501
7078 1 16.7311 28.7214 5.66036
7088 1 18.2278 29.5957 3.17328
7089 2 18.2223 27.8683 4.43758
7092 1 19.7007 28.7228 5.65547
7102 1 21.1878 29.6011 3.16995
7103 2 21.1967 27.876 4.43232
7106 1 22.6857 28.7446 5.6873
7116 1 24.1595 29.5828 3.16913
7117 2 24.162 27.8799 4.421
7120 1 25.6869 28.7383 5.59283
7131 2 27.1485 27.7781 4.43697
7130 1 27.1356 29.5843 3.092
7134 1 28.6334 28.7315 5.57368
11 1 0.35229 2.11392 8.06297
13 7 0.359668 0.403537 9.03822
9 2 1.84931 1.23905 6.79888
14 3 1.855 2.95532 9.02174
25 1 3.34217 2.09589 8.05354
27 3 3.36314 0.375298 9.01424
23 2 4.83007 1.23079 6.77606
28 3 4.84483 2.94951 9.00124
41 7 6.23468 0.43563 9.06835
39 1 6.31973 2.07944 8.02422
37 2 7.79044 1.32016 6.70705
42 3 7.79768 2.9371 9.00405
53 1 9.26871 2.07524 8.01684
55 7 9.3577 0.425251 9.05143
51 2 10.754 1.21649 6.76264
56 3 10.756 2.94122 8.97764
67 1 12.2456 2.02934 8.06515
69 3 12.2283 0.327436 9.01238
65 2 13.7395 1.21902 6.76317
70 3 13.7347 2.93776 8.9834
81 1 15.2346 2.08459 8.03081
83 3 15.2315 0.363574 8.99203
79 2 16.7229 1.22013 6.76005
84 3 16.7265 2.94047 8.99492
95 1 18.2121 2.07158 8.03334
97 3 18.1967 0.34686 8.99058
93 2 19.7056 1.22286 6.76256
98 7 19.6998 2.94225 8.98707
109 5 21.1408 2.1066 7.96876
111 7 21.1818 0.366128 8.97177
107 2 22.6988 1.2045 6.74333
112 7 22.6703 2.94421 8.97177
123 1 24.2072 2.04966 7.98717
125 3 24.1947 0.350109 8.96332
121 2 25.5877 1.24141 6.79306
126 3 25.6662 2.93352 8.96023
137 1 27.1343 2.10708 7.95632
139 3 27.1356 0.366128 8.97177
135 2 28.6573 1.25725 6.79949
140 3 28.5881 2.95245 8.96505
151 1 30.0462 2.10659 7.97687
1413 3 0.363086 5.51749 9.01244
10 2 0.349109 3.81215 6.78441
12 1 1.85055 4.6653 8.04296
1427 3 3.33462 5.52473 9.01452
24 2 3.33439 3.81063 6.77657
26 1 4.82259 4.67161 8.04299
1441 3 6.30764 5.52505 9.0183
38 2 6.30481 3.81131 6.77571
40 1 7.79174 4.66304 8.04957
1455 3 9.25903 5.54225 9.02943
52 2 9.2764 3.81044 6.77035
54 1 10.7232 4.68905 8.06817
1469 3 12.2628 5.51843 8.97693
66 2 12.2513 3.80357 6.73038
68 1 13.789 4.67638 8.05803
1483 3 15.2505 5.52081 9.02895
80 2 15.2446 3.80377 6.76814
82 1 16.7403 4.6725 8.05222
1497 3 18.246 5.52153 9.00282
94 2 18.2189 3.80612 6.77087
96 1 19.7284 4.66443 8.0314
1511 3 21.2077 5.56027 8.98019
108 6 21.1965 3.81588 6.75207
110 1 22.6826 4.70837 8.00574
1525 3 24.1624 5.56313 8.96946
122 2 24.1628 3.79932 6.74399
124 1 25.6276 4.6591 8.00816
1539 3 27.1133 5.52562 8.97099
136 2 27.1214 3.79356 6.73502
138 1 28.6014 4.66963 8.00301
1411 1 0.382979 7.20882 8.01836
1410 2 0.337176 8.95848 6.78344
1409 2 1.84068 6.38289 6.77589
1414 3 1.82749 8.08394 9.01398
1425 1 3.32881 7.24466 8.05168
1424 2 3.32413 8.96567 6.80126
1423 2 4.82013 6.38799 6.78132
1428 3 4.82007 8.08764 9.02375
1439 1 6.32337 7.25027 8.06465
1438 2 6.30792 8.96949 6.80843
1437 2 7.79826 6.38347 6.78535
1442 3 7.82541 8.09714 9.02446
1452 2 9.21858 8.92032 6.73638
1453 1 9.30097 7.24649 8.03939
1451 2 10.7696 6.39008 6.76991
1456 7 10.7837 7.97926 9.07179
1467 1 12.2552 7.24433 8.02501
1466 2 12.3497 8.90889 6.73214
1465 2 13.7525 6.37513 6.76896
1470 3 13.7466 8.06979 9.01117
1481 1 15.2054 7.20631 8.02454
1480 2 15.2481 8.95462 6.79152
1479 2 16.7359 6.38537 6.78161
1484 7 16.7165 8.10036 8.97177
1495 1 18.2783 7.21595 8.01318
1494 2 18.2292 8.95521 6.76388
1493 2 19.7183 6.38749 6.7657
1498 3 19.7399 8.08834 8.98986
1508 2 21.1121 9.01256 6.82798
1509 1 21.2153 7.25915 7.98321
1507 2 22.6783 6.30639 6.81219
1512 3 22.6878 8.10979 8.97267
1523 1 24.1511 7.25952 7.96818
1522 2 24.2175 9.0029 6.8004
1521 2 25.6308 6.3868 6.73218
1526 3 25.6286 8.10042 8.96526
1537 1 27.1194 7.24282 8.0031
1536 2 27.1187 8.95988 6.73074
1535 2 28.6063 6.38495 6.74335
1540 3 28.6025 8.10341 8.97597
2813 3 0.306815 10.6794 9.01193
2809 2 1.84054 11.5426 6.79279
1412 1 1.77215 9.79411 8.04944
2827 3 3.32067 10.6784 8.97177
2823 2 4.81792 11.5447 6.81422
1426 1 4.81455 9.76543 8.02473
2841 3 6.29753 10.6784 8.97177
2837 2 7.79431 11.5427 6.81039
1440 1 7.86819 9.78752 8.03104
2855 7 9.22927 10.7064 9.06936
2851 2 10.7633 11.6452 6.74715
1454 5 10.7628 9.81908 7.91623
2869 7 12.2513 10.6784 8.97177
2865 2 13.7275 11.5287 6.80553
1468 1 13.7803 9.76745 8.02787
2883 3 15.2347 10.6492 9.01137
2879 2 16.7218 11.5403 6.78493
1482 1 16.735 9.86586 8.01973
2897 3 18.214 10.6849 9.0161
2893 2 19.7039 11.5415 6.76731
1496 1 19.6947 9.81814 8.04309
2911 3 21.2064 10.6642 8.98488
2907 2 22.6715 11.532 6.7449
1510 1 22.6736 9.8102 7.98198
2925 3 24.1493 10.6649 8.97125
2921 2 25.6372 11.5367 6.73343
1524 1 25.6443 9.82059 8.00313
2939 3 27.1262 10.6785 8.97947
2935 2 28.6105 11.5397 6.73624
1538 1 28.6093 9.81972 8.00703
2811 1 0.326025 12.3713 8.01923
2810 2 0.346134 14.121 6.7784
2812 1 1.83252 15.027 8.02182
2814 3 1.83223 13.2565 8.97177
2825 1 3.33604 12.3943 7.96872
2824 2 3.32384 14.1252 6.79011
2826 1 4.78131 15.0284 8.01787
2828 3 4.8091 13.2565 8.97177
2839 1 6.34551 12.4175 8.04348
2838 2 6.29006 14.0466 6.88267
2840 1 7.73512 14.9973 8.06333
2842 3 7.80568 13.2733 9.01699
2853 1 9.2768 12.3753 8.06075
2852 2 9.24823 14.1262 6.81653
2854 1 10.6969 14.946 8.06551
2856 3 10.7437 13.2466 9.04276
2867 1 12.2273 12.4412 8.04203
2866 2 12.2442 14.1259 6.82387
2868 1 13.7823 14.9481 8.06684
2870 3 13.7252 13.2409 9.03047
2881 1 15.2128 12.3784 8.06819
2880 2 15.2266 14.1078 6.80816
2882 1 16.731 14.9459 8.07455
2884 3 16.7162 13.2215 9.02758
2895 1 18.2189 12.4006 8.05127
2894 2 18.2142 14.1175 6.80374
2896 1 19.7114 14.9842 8.08591
2898 3 19.7144 13.2467 9.01804
2909 1 21.1923 12.3904 8.0334
2908 2 21.1901 14.1194 6.78639
2910 1 22.6912 14.9604 8.04814
2912 3 22.6854 13.2363 9.00299
2923 1 24.1616 12.3865 8.0123
2922 2 24.1622 14.1151 6.76209
2924 1 25.6575 14.9656 8.03163
2926 3 25.6472 13.2411 8.98631
2937 1 27.13 12.3916 8.00523
2936 2 27.1327 14.1172 6.74839
2938 1 28.6132 14.9673 8.0167
2940 7 28.608 13.2508 8.98539
4213 3 0.331942 15.838 8.99107
4209 2 1.81311 16.6905 6.76091
4225 1 3.28892 17.5289 8.05409
4227 3 3.30702 15.8449 9.0276
4223 2 4.72826 16.7341 6.84025
4239 1 6.2228 17.527 8.00963
4241 3 6.24293 15.8537 9.02587
4237 2 7.83962 16.7419 6.89979
4255 3 9.23649 15.8084 9.04985
4253 1 9.30221 17.5238 8.09601
4251 2 10.7499 16.7022 6.83345
4267 1 12.1967 17.5818 8.05728
4269 3 12.2513 15.8346 8.97177
4265 2 13.7323 16.6908 6.84585
4281 1 15.2491 17.4927 8.08464
4283 3 15.2519 15.7892 9.05986
4279 2 16.7167 16.6872 6.83304
4295 1 18.1704 17.5238 8.09149
4297 3 18.2048 15.8124 9.0525
4293 2 19.7009 16.7055 6.83728
4309 1 21.2474 17.533 8.07924
4311 3 21.2226 15.8204 9.03877
4307 2 22.6842 16.6987 6.80536
4323 1 24.1942 17.5387 8.06329
4325 3 24.1792 15.8147 9.01889
4321 2 25.6591 16.6984 6.77794
4337 1 27.157 17.5521 8.03793
4339 3 27.1405 15.8309 8.99961
4335 2 28.6246 16.7039 6.75852
5613 7 0.343803 20.9908 8.97177
4212 1 1.7992 20.1101 8.01974
4214 3 1.79805 18.4086 8.99217
5627 3 3.28272 20.9332 8.99243
4224 2 3.32067 19.272 6.73038
4226 1 4.86782 20.1688 8.11178
4228 3 4.77544 18.4099 8.99783
5641 3 6.33532 21.0069 9.08467
4238 2 6.29078 19.269 6.81752
4240 1 7.78905 20.1664 8.07271
4242 7 7.78596 18.4127 8.97177
5655 3 9.25248 21.0052 9.07252
4252 2 9.25805 19.2683 6.85676
4254 1 10.7617 20.1454 8.13729
4256 3 10.7533 18.4108 9.07437
5669 3 12.2707 21.0058 9.07528
4266 2 12.2511 19.275 6.85995
4268 1 13.7426 20.1717 8.08481
4270 3 13.7397 18.4127 8.97177
5683 3 15.2202 20.9995 9.07251
4280 2 15.2211 19.2656 6.85347
4282 1 16.6699 20.0758 8.1228
4284 3 16.6967 18.3596 9.08032
5697 3 18.205 20.9908 8.97177
4294 2 18.2051 19.2802 6.85924
4296 1 19.6931 20.1353 8.03167
4298 7 19.6934 18.4127 8.97177
5711 3 21.1818 20.9908 8.97177
4308 2 21.1871 19.2767 6.85393
4310 1 22.7293 20.1015 8.08503
4312 3 22.7217 18.3917 9.05027
5725 7 24.1942 20.8459 9.12034
4322 2 24.1716 19.2776 6.81781
4324 1 25.6614 20.1258 8.06051
4326 3 25.6809 18.4063 9.02324
5739 3 27.1498 20.9712 9.0316
4336 2 27.1517 19.2773 6.78472
4338 1 28.6334 20.1441 8.0281
4340 3 28.6376 18.4275 8.99976
5611 1 0.310885 22.7329 8.01247
5609 2 1.73078 21.8566 6.85062
5614 3 1.80253 23.5288 9.00675
5625 1 3.23686 22.6295 8.01111
5623 2 4.88322 21.8734 6.90078
5628 3 4.8091 23.5688 8.97177
5639 1 6.33096 22.6898 8.07803
5637 2 7.79178 21.8388 6.82314
5642 3 7.78746 23.5511 9.06859
5653 1 9.24516 22.6938 8.07611
5651 2 10.7689 21.8607 6.85538
5656 7 10.7628 23.5688 8.97177
5667 1 12.3066 22.6929 8.07765
5665 2 13.7478 21.8498 6.82876
5670 3 13.7792 23.5341 9.06443
5681 1 15.2653 22.6993 8.076
5679 2 16.7259 21.7594 6.94083
5684 3 16.7122 23.5726 9.08267
5695 1 18.2115 22.7792 8.09849
5693 2 19.6832 21.8657 6.87268
5698 3 19.7063 23.5781 9.09195
5709 1 21.1886 22.7514 8.10814
5707 2 22.5985 21.8103 6.82109
5712 7 22.5609 23.6442 9.15109
5723 5 24.1587 22.7095 7.91623
5721 2 25.7353 21.8026 6.76812
5726 7 25.7706 23.5991 9.11885
5737 1 27.0983 22.6689 8.05015
5735 2 28.5666 21.895 6.87669
5740 7 28.624 23.5688 8.97177
7013 3 0.328209 26.1 8.99969
5610 2 0.343559 24.3982 6.76429
7009 2 1.82666 26.983 6.79504
5612 1 1.83975 25.256 8.0589
7027 3 3.31392 26.1375 9.03012
5624 2 3.31417 24.3854 6.80183
7023 2 4.80026 26.9925 6.81611
5626 1 4.79643 25.3038 8.05519
7041 3 6.26346 26.1414 9.05132
5638 2 6.28646 24.413 6.83105
7037 2 7.78214 27.0001 6.83914
5640 1 7.77427 25.2796 8.1175
7055 3 9.26958 26.1451 9.06699
5652 2 9.27926 24.4254 6.84215
7051 2 10.7654 27.0064 6.84945
5654 1 10.7652 25.3395 8.08627
7069 3 12.2551 26.1359 9.087
5666 2 12.2582 24.4215 6.83956
7065 2 13.7565 26.9944 6.8587
5668 1 13.7332 25.2635 8.11893
5680 2 15.171 24.4559 6.90909
7083 3 15.2251 26.1098 9.08797
7079 2 16.7325 26.9939 6.88231
5682 1 16.6701 25.2507 8.07552
7097 3 18.205 26.1469 8.97177
5694 2 18.2817 24.4794 6.9433
7093 2 19.7021 27.0074 6.8894
5696 1 19.7427 25.2815 8.12453
7111 3 21.2035 26.1496 9.10115
5708 2 21.1934 24.435 6.87649
7107 2 22.6908 27.0293 6.89419
5710 1 22.6628 25.2839 8.11729
7125 3 24.1587 26.1469 8.97177
5722 2 24.1768 24.5299 6.8276
7121 2 25.6722 27.0184 6.8643
5724 1 25.7236 25.2494 8.09453
7139 3 27.1805 26.1465 9.0588
5736 2 27.1624 24.4183 6.83436
7135 2 28.6494 27.0137 6.82402
5738 1 28.6594 25.3305 8.06299
7011 1 0.329935 27.7765 7.99824
7010 2 0.335356 29.577 6.78527
7014 3 1.83223 28.725 8.97177
7025 1 3.33455 27.8342 8.04597
7024 2 3.30301 29.5822 6.8034
7028 3 4.77988 28.7125 9.03789
7039 1 6.24577 27.8398 8.07064
7038 2 6.28599 29.5864 6.82604
7042 3 7.78596 28.725 8.97177
7053 1 9.25973 27.8149 8.05792
7052 2 9.26864 29.583 6.86641
7056 7 10.7628 28.725 8.97177
7067 1 12.2987 27.8301 8.10241
7066 2 12.2531 29.5704 6.87955
7070 3 13.7479 28.6898 9.10473
7081 1 15.2518 27.8452 8.151
7080 2 15.2422 29.5781 6.89333
7084 3 16.732 28.7184 9.11689
7095 1 18.2305 27.9197 8.13663
7094 2 18.2229 29.5936 6.89997
7098 3 19.7282 28.7287 9.11445
7108 2 21.127 29.5304 6.831
7109 1 21.1737 27.8515 8.12164
7112 7 22.6703 28.725 8.97177
7123 1 24.2428 27.9459 8.06379
7122 2 24.2774 29.5484 6.79717
7126 3 25.6973 28.7625 9.07418
7136 2 27.1647 29.5917 6.8246
7140 3 28.6594 28.7281 9.05674
7137 1 27.1619 27.8709 8.10367
8401 7 0.343803 31.3031 2.03646
8415 7 3.32067 31.3031 2.03646
8429 7 6.29753 31.3031 2.03646
8443 3 9.34755 31.3082 2.1832
8457 3 12.2883 31.3197 2.19612
8471 3 15.2441 31.3124 2.21167
8485 3 18.2299 31.3137 2.2115
8499 3 21.176 31.3184 2.20103
8513 3 24.1364 31.2901 2.19097
8527 3 27.1137 31.3496 2.12554
8402 3 1.86519 33.9058 2.09513
8404 1 0.370939 34.7857 3.03254
8416 3 4.82596 33.9129 2.11684
8430 7 7.78596 33.8811 2.03646
8444 7 10.7604 33.8508 2.15479
8458 3 13.8066 33.836 2.17721
8472 7 16.7165 33.8811 2.03646
8486 3 19.6506 33.8607 2.17405
8500 3 22.6655 33.8404 2.17005
8514 7 25.6471 33.8811 2.03646
8528 3 28.6473 33.834 2.13055
9801 3 0.383661 36.5198 2.09377
9802 3 1.91987 39.0377 2.07037
9815 7 3.32067 36.4592 2.03646
9816 3 4.84269 39.0863 2.1216
9829 3 6.32384 36.4858 2.12198
9830 3 7.82745 39.0245 2.12985
9843 7 9.33914 36.4391 2.15448
9844 3 10.7942 38.989 2.1525
9857 3 12.2793 36.5531 2.12014
9858 3 13.7528 39.0036 2.17146
9871 7 15.2281 36.4592 2.03646
9872 3 16.7656 39.0341 2.18383
9885 3 18.2694 36.4757 2.19343
9886 3 19.7219 39.0423 2.20188
9899 3 21.2025 36.6097 2.12679
9900 3 22.6948 39.058 2.20787
9913 7 24.1587 36.4592 2.03646
9914 7 25.6279 39.0788 2.16091
9927 7 27.1356 36.4592 2.03646
9928 7 28.624 39.0373 2.03646
11201 7 0.398269 41.6942 2.06732
11215 3 3.35049 41.6403 2.1154
11229 3 6.3118 41.6674 2.11529
9832 1 6.34821 39.9376 3.06419
11243 7 9.27439 41.6154 2.03646
11257 7 12.2513 41.6154 2.03646
11271 3 15.2721 41.6069 2.15967
11285 3 18.2611 41.6163 2.18194
11299 3 21.1885 41.6229 2.18507
11313 3 24.167 41.6149 2.17653
11327 7 27.1356 41.6154 2.03646
11202 3 1.89138 44.2184 2.11714
11216 3 4.75129 44.1657 2.05981
11230 3 7.78557 44.2147 2.12393
11244 7 10.7628 44.1935 2.03646
11258 3 13.8095 44.1871 2.13441
11272 3 16.7739 44.1796 2.15899
11286 3 19.7228 44.1712 2.1636
11300 3 22.6713 44.1844 2.16838
11314 3 25.6427 44.1508 2.16394
11328 3 28.6516 44.1549 2.15551
12601 3 0.389955 46.7934 2.08113
12615 3 3.35111 46.8001 2.11417
12629 7 6.29753 46.7715 2.03646
12643 3 9.28948 46.7478 2.11769
12657 3 12.2978 46.7355 2.11852
12671 3 15.2652 46.7408 2.12691
12685 3 18.2264 46.7133 2.13146
12699 3 21.1978 46.7316 2.13952
12713 7 24.1788 46.7415 2.1323
12727 3 27.1457 46.7311 2.1386
12602 3 1.88641 49.3803 2.10329
12604 1 0.384035 50.2275 3.05626
12616 3 4.81574 49.3197 2.12562
12630 3 7.77785 49.3177 2.12521
12644 7 10.7628 49.3496 2.03646
12658 7 13.7563 49.3533 2.11364
12672 7 16.7165 49.3496 2.03646
12686 3 19.7227 49.3366 2.09823
12688 1 18.2727 50.2528 3.05702
12700 3 22.7045 49.3098 2.10665
12714 3 25.685 49.3315 2.12414
12716 1 24.1842 50.1965 3.06409
12728 3 28.6246 49.3296 2.11633
14001 3 0.400483 51.9474 2.09314
14015 3 3.33601 51.9452 2.11241
14029 7 6.29753 51.9277 2.03646
14043 3 9.29424 51.8924 2.10317
14057 3 12.1877 51.8364 2.04999
14071 7 15.2281 51.9277 2.03646
14085 3 18.2084 51.9658 2.09726
14087 1 19.687 52.8142 3.06329
14099 7 21.1818 51.9277 2.03646
14113 3 24.24 51.9208 2.11309
14127 3 27.0705 51.8698 2.06065
15401 7 0.473273 57.0227 2.03176
14002 3 1.77185 54.4811 2.07389
14016 3 4.79181 54.5165 2.10081
15429 3 6.26073 57.0701 2.09702
14030 7 7.78596 54.5058 2.03646
14044 7 10.7628 54.5058 2.03646
15457 7 12.2513 57.0838 2.03646
14058 7 13.7926 54.579 2.06829
15471 3 15.2459 57.1056 2.11484
14072 3 16.7386 54.5055 2.0986
15485 7 18.205 57.0838 2.03646
14086 3 19.6881 54.5072 2.07815
15499 7 21.1818 57.0838 2.03646
14100 7 22.6703 54.5058 2.03646
15513 7 24.1587 57.0838 2.03646
14114 3 25.6928 54.484 2.09731
15527 3 27.1453 57.0538 2.09299
14128 3 28.6129 54.6096 2.02865
15402 3 1.84888 59.6125 2.09298
15415 3 3.30253 57.164 2.07208
15416 3 4.81593 59.6051 2.09178
15430 3 7.79708 59.6636 2.10329
15431 1 7.76156 57.9339 3.04478
15443 3 9.26951 57.1192 2.0783
15444 3 10.7547 59.6953 2.09936
15458 3 13.748 59.6863 2.12171
15472 3 16.7103 59.6881 2.11272
15486 3 19.7025 59.6988 2.10642
15500 3 22.6808 59.6814 2.09849
15514 3 25.6685 59.6769 2.08212
15515 1 25.7032 57.9722 3.0558
15528 3 28.6182 59.6564 2.07256
15529 1 28.6277 57.9374 3.03915
8405 2 0.359609 33.0469 4.30628
8407 1 0.348908 31.3028 5.51842
8403 1 1.85286 32.2349 3.1032
7006 2 1.84711 30.4432 4.31177
8419 2 3.33708 33.0412 4.33489
8421 1 3.32552 31.303 5.54488
8417 1 4.84941 32.2446 3.12945
7020 2 4.81603 30.4503 4.33495
8433 2 6.31978 33.041 4.35252
8435 1 6.29403 31.3096 5.57362
8431 1 7.88109 32.1393 3.16754
7034 2 7.79737 30.4459 4.37892
8445 1 10.8104 32.1856 3.16924
8447 2 9.30558 33.0278 4.4038
8449 1 9.28647 31.3018 5.64187
7048 2 10.7782 30.4428 4.41076
8459 1 13.7613 32.1721 3.18828
8461 2 12.2743 32.9276 4.49764
8463 1 12.2673 31.2907 5.65406
7062 2 13.7646 30.443 4.43017
8473 1 16.7368 32.1257 3.19287
8475 2 15.2408 33.0277 4.44027