ITEM: TIMESTEP
0
ITEM: NUMBER OF ATOMS
81200
ITEM: BOX BOUNDS pp pp pp
1.2218034774630797e-01 2.9817731554828384e+02
1.0829207740282179e-01 2.9953941989676969e+02
0.0000000000000000e+00 4.9031656433928198e+01
ITEM: ATOMS id type x y z
1 3 0.156514 0.169925 2.17758
2 3 1.66789 2.74063 2.16507
15 3 3.14648 0.159572 2.17906
16 3 4.6112 2.76773 2.13361
29 7 6.12054 0.17918 2.03646
30 3 7.62178 2.76271 2.16003
43 3 9.08659 0.174421 2.16177
44 3 10.5788 2.73352 2.14944
57 3 12.0412 0.153719 2.15532
58 3 13.5511 2.72068 2.14477
71 3 15.053 0.179777 2.1397
72 3 16.5073 2.75734 2.13483
85 7 18.0427 0.17918 2.03646
86 3 19.4906 2.76083 2.11358
99 7 21.0233 0.17918 2.03646
100 7 22.5136 2.76048 2.03646
113 3 24.0074 0.429631 1.99728
114 3 25.4923 2.82778 2.06217
115 1 25.4594 1.16367 3.05419
127 7 26.9844 0.17918 2.03646
128 3 28.4809 2.79378 2.10344
1401 3 0.168072 5.39228 2.10461
1415 7 3.13999 5.34179 2.03646
1429 3 6.13672 5.35512 2.154
1443 3 9.09337 5.36184 2.15274
1457 7 12.0816 5.34179 2.03646
1471 3 15.0545 5.34202 2.13827
1485 3 18.0044 5.315 2.11332
1499 3 21.0439 5.34829 2.19668
1513 3 24.0077 5.35063 2.09602
1527 3 26.9734 5.37471 2.09431
130 1 26.9826 3.65217 3.05269
1541 3 29.9267 5.37138 2.10023
1402 3 1.6528 7.97514 2.14784
1416 3 4.67138 7.93926 2.15752
1430 3 7.62273 7.94036 2.17392
1444 3 10.5717 7.93832 2.16651
1458 3 13.5779 7.93284 2.16142
1472 3 16.5346 7.89083 2.13164
1486 3 19.5371 7.9318 2.19879
1500 7 22.5136 7.92309 2.03646
1514 3 25.4836 7.94895 2.10427
1515 1 25.4833 6.22748 3.06351
1528 3 28.4542 7.93137 2.10175
2801 3 0.200322 10.5542 2.1793
2815 3 3.19541 10.4886 2.1496
2829 3 6.14144 10.5244 2.17632
2843 3 9.10521 10.5247 2.18433
2857 3 12.0748 10.4857 2.17759
2871 3 15.0344 10.5115 2.16542
2885 7 18.0427 10.5044 2.03646
2899 3 20.9945 10.5276 2.12475
2913 3 23.9879 10.5234 2.11487
2927 7 26.9844 10.5044 2.03646
2802 7 1.64971 13.0857 2.03646
2816 3 4.67226 13.091 2.18733
2830 3 7.59566 13.1013 2.1943
2844 3 10.5905 13.0943 2.18673
2858 7 13.5719 13.0857 2.03646
2872 3 16.5281 13.1189 2.16741
2886 3 19.5234 13.1761 2.12077
2900 7 22.5136 13.0857 2.03646
2914 3 25.446 13.1514 2.11665
2928 7 28.4747 13.0857 2.03646
4201 7 0.159437 15.667 2.03646
4215 7 3.13999 15.667 2.03646
4229 3 6.14619 15.6742 2.19955
4243 3 9.11187 15.6644 2.18261
4257 3 12.0698 15.6713 2.19954
4271 3 15.0709 15.6898 2.19292
4285 3 18.0289 15.7104 2.18738
4299 3 20.9768 15.7369 2.16674
4313 3 23.9804 15.7287 2.1444
4327 3 26.9497 15.6905 2.1275
4202 3 1.67294 18.2441 2.16775
5601 3 0.190831 20.7603 2.13706
5615 3 3.16091 20.7868 2.17223
4216 3 4.63471 18.22 2.16686
5629 3 6.11748 20.8613 2.17737
4230 3 7.5868 18.1926 2.1981
5643 3 9.11796 20.7876 2.24924
4244 3 10.6109 18.2224 2.19291
5657 3 12.0725 20.7831 2.22494
4258 3 13.5983 18.2293 2.1926
4272 3 16.5518 18.2771 2.2163
5671 3 15.0705 20.8329 2.2399
5685 3 18.0052 20.8647 2.24876
4286 3 19.4991 18.2965 2.213
4300 3 22.4615 18.2939 2.18622
5699 3 20.9867 20.8601 2.22616
5713 3 23.936 20.8718 2.19539
4314 3 25.4137 18.3067 2.13191
5727 3 26.8558 20.857 2.12994
4328 7 28.4747 18.2483 2.03646
5602 7 1.64971 23.4109 2.03646
5616 3 4.66809 23.3752 2.1774
5630 3 7.62719 23.4228 2.16605
5644 7 10.5914 23.4109 2.03646
5658 7 13.5719 23.4109 2.03646
5672 3 16.5673 23.4314 2.25244
5686 3 19.5025 23.4328 2.25732
5700 3 22.4687 23.4314 2.23075
5714 3 25.4102 23.4428 2.19293
5728 7 28.4747 23.4109 2.03646
7001 3 0.193402 25.9601 2.111
7015 3 3.18464 25.9576 2.14312
7029 3 6.13517 25.9758 2.17369
7043 7 9.10109 25.9922 2.03646
7057 7 12.0816 25.9922 2.03646
7071 3 15.1192 25.9918 2.23282
7085 3 18.0556 25.9723 2.25888
7099 3 21.0098 25.9946 2.24595
7113 3 23.9652 26.0037 2.22723
7127 3 26.8812 25.98 2.1523
5744 1 29.8992 24.2927 3.05271
7002 3 1.66814 28.4932 2.10047
7016 3 4.64861 28.5305 2.16604
7030 3 7.62099 28.5395 2.15849
7044 3 10.6197 28.5847 2.20224
7058 3 13.6157 28.5754 2.22276
7072 3 16.5902 28.573 2.23872
7086 3 19.5439 28.5692 2.24909
7100 3 22.5005 28.5812 2.23851
7114 3 25.3607 28.521 2.14916
7128 3 28.6086 28.5036 2.15393
3 1 1.66897 1.01542 3.1167
5 6 0.159437 1.90005 4.27785
7 1 0.156812 0.184899 5.64574
8 1 1.6982 2.77263 5.61085
17 1 4.58734 1.10286 3.12323
19 2 3.13396 1.9157 4.40072
21 1 3.1157 0.19538 5.65894
22 1 4.63185 2.76741 5.61516
31 1 7.64522 1.06708 3.14974
33 2 6.11297 1.89827 4.37217
35 1 6.12152 0.164281 5.61744
36 1 7.60476 2.78949 5.58775
45 1 10.5719 1.02696 3.13262
47 2 9.10545 1.90134 4.39001
49 1 9.10463 0.138502 5.61721
50 1 10.5589 2.74108 5.58662
59 1 13.5464 1.00163 3.10722
61 2 12.0695 1.88053 4.37321
63 1 12.0682 0.167019 5.61546
64 1 13.5913 2.73665 5.57778
73 1 16.4971 1.06461 3.12754
75 2 15.039 1.89512 4.37942
77 1 15.0537 0.167782 5.60512
78 1 16.5529 2.74986 5.60533
87 1 19.5431 1.09511 3.13289
89 2 18.0355 1.88793 4.34984
91 1 18.0292 0.144563 5.54468
92 1 19.5394 2.77518 5.56718
101 1 22.5808 1.04123 3.14572
103 2 21.0299 1.90137 4.34419
105 1 21.0655 0.135669 5.55895
106 1 22.5189 2.74124 5.59932
119 1 23.9637 0.167986 5.57259
117 2 24.0108 1.93168 4.33867
120 1 25.5058 2.7717 5.52893
129 1 28.4847 1.0947 3.08974
131 2 26.9692 2.01055 4.23114
133 5 26.9844 0.17918 5.50412
134 1 28.446 2.74256 5.54597
147 1 29.9029 0.20577 5.53417
4 1 0.22478 3.71448 3.07171
1407 1 0.151886 5.37619 5.5622
6 2 1.6619 4.51507 4.35003
18 1 3.14265 3.59028 3.13812
1421 1 3.14188 5.35496 5.5844
20 2 4.63078 4.49187 4.37231
32 1 6.11065 3.62061 3.09462
1435 1 6.12156 5.34258 5.61785
34 2 7.60969 4.47511 4.38977
46 1 9.11073 3.63639 3.10889
1449 1 9.10314 5.34012 5.6192
48 2 10.5882 4.48462 4.36454
60 1 12.07 3.55629 3.12382
74 1 15.0237 3.62048 3.10022
1463 1 12.0787 5.36428 5.55939
62 2 13.563 4.47773 4.35725
1477 1 15.0654 5.32643 5.6075
76 2 16.55 4.47326 4.38151
88 1 18.007 3.60461 3.09468
102 1 20.9296 3.60913 3.09401
1491 1 18.023 5.315 5.57733
90 2 19.5156 4.45442 4.36656
1505 1 21.0436 5.34011 5.61567
104 6 22.5136 4.48135 4.27785
116 1 24.0671 3.65486 3.07851
1519 1 24.0055 5.39072 5.59265
118 2 25.4902 4.48616 4.3502
1533 1 26.9687 5.35138 5.56505
132 2 28.4746 4.50136 4.34317
1404 1 0.192394 8.83965 3.13134
1403 1 1.6008 6.2695 3.11778
1405 2 0.148347 7.07192 4.36643
1408 1 1.65294 7.93308 5.60667
1418 1 3.16833 8.77601 3.12089
1417 1 4.68643 6.23874 3.13721
1419 2 3.14815 7.07117 4.37301
1422 1 4.63482 7.92931 5.62457
1432 1 6.14028 8.80619 3.14154
1431 1 7.61381 6.21579 3.13033
1433 2 6.12807 7.07165 4.39332
1436 1 7.61024 7.92449 5.62667
1446 1 9.10157 8.80546 3.14834
1445 1 10.5426 6.23721 3.14486
1447 2 9.10426 7.07136 4.39854
1450 1 10.5962 7.93574 5.64822
1460 1 12.0773 8.76466 3.13502
1459 1 13.611 6.22631 3.13049
1461 2 12.0755 7.04613 4.38561
1464 1 13.5804 7.90863 5.60817
1473 1 16.5439 6.18315 3.11252
1474 1 15.0764 8.78481 3.11423
1488 1 17.9892 8.70396 3.12091
1475 2 15.0681 7.05326 4.38059
1478 1 16.5607 7.90884 5.6273
1487 1 19.4779 6.16494 3.06646
1489 2 18.0298 7.04385 4.37452
1492 1 19.5509 7.93015 5.63244
1501 1 22.5722 6.20067 3.08104
1502 1 21.0152 8.85441 3.09879
1503 6 21.0233 7.06265 4.27785
1506 5 22.5136 7.92309 5.50412
1516 1 24.0366 8.82695 3.10166
1517 2 24.0656 7.05801 4.27211
1520 1 25.4224 7.91902 5.52609
1529 1 28.4511 6.22441 3.08245
1530 1 26.9733 8.76067 3.08682
1531 2 26.9674 7.07995 4.3349
1534 1 28.4804 7.92821 5.54946
2803 1 1.73828 11.3094 3.12884
1406 2 1.67003 9.64814 4.38755
2807 1 0.158636 10.4888 5.62196
2817 1 4.65029 11.3709 3.14717
2821 1 3.15007 10.5123 5.6453
1420 2 4.64465 9.65329 4.40882
2831 1 7.62007 11.3816 3.15734
2835 1 6.12575 10.5171 5.65714
1434 2 7.61931 9.66168 4.41484
2845 1 10.603 11.3711 3.14659
2849 1 9.11467 10.5064 5.65738
1448 2 10.5945 9.64658 4.41758
2859 1 13.5524 11.3091 3.1715
2863 1 12.0682 10.4916 5.67259
1462 2 13.5671 9.63673 4.39919
2873 1 16.487 11.4099 3.13499
1476 2 16.551 9.63935 4.37991
2877 1 15.0634 10.491 5.62131
2887 1 19.5724 11.4889 3.07574
1490 6 19.533 9.64396 4.27785
2891 1 18.034 10.4974 5.60614
2901 1 22.4954 11.3363 3.09557
1504 2 22.5125 9.71891 4.27527
2905 1 21.054 10.4854 5.61035
2915 1 25.4234 11.443 3.08658
1518 2 25.4751 9.67022 4.31805
2919 1 23.9725 10.4877 5.56733
2929 1 28.5224 11.3545 3.11763
1532 2 28.4619 9.66448 4.32459
2933 1 26.9624 10.5537 5.51358
2804 1 0.152928 13.976 3.12623
2805 6 0.159437 12.2253 4.27785
2808 1 1.70358 13.1005 5.60964
2806 2 1.6682 14.8211 4.36485
2819 2 3.15961 12.2381 4.4146
2818 1 3.20072 13.918 3.16978
2822 1 4.64951 13.1194 5.6478
2820 2 4.56697 14.7716 4.33219
2832 1 6.12724 13.9691 3.18369
2833 2 6.12732 12.2416 4.42462
2836 1 7.59313 13.1173 5.64548
2834 2 7.67995 14.7662 4.3544
2846 1 9.09852 13.946 3.14919
2860 1 12.0355 13.9735 3.18214
2847 2 9.09639 12.2267 4.4196
2850 1 10.5811 13.0914 5.63843
2848 2 10.5812 14.8111 4.43304
2861 2 12.0819 12.2195 4.41141
2864 1 13.5648 13.0727 5.62999
2862 2 13.5718 14.807 4.43177
2874 1 15.0904 13.9912 3.17471
2875 2 15.0574 12.2318 4.40282
2878 1 16.5293 13.059 5.60153
2876 2 16.5438 14.8164 4.4052
2888 1 18.0254 13.9738 3.12155
2902 1 20.9646 14.032 3.13693
2889 2 18.046 12.2315 4.36783
2892 1 19.5264 13.0576 5.55801
2890 2 19.5117 14.8454 4.39879
2903 2 21.0075 12.2552 4.3528
2906 1 22.5207 13.0794 5.54397
2904 2 22.4996 14.8398 4.36969
2916 1 24.0094 14.0265 3.12082
2930 1 26.9247 13.9859 3.09797
2917 2 23.9696 12.2553 4.3489
2920 1 25.4781 13.0996 5.57728
2918 2 25.4797 14.8408 4.35453
2931 2 26.9693 12.237 4.32779
2934 1 28.4631 13.105 5.5482
2932 2 28.4621 14.8215 4.33132
4207 1 0.128331 15.6962 5.55479
4203 1 1.66773 16.5637 3.16178
4205 2 0.160147 17.3645 4.38142
4217 1 4.65758 16.5223 3.14962
4221 1 3.16354 15.6706 5.58813
4219 2 3.14386 17.3749 4.38154
4231 1 7.6486 16.4836 3.17534
4235 5 6.12054 15.667 5.50412
4233 6 6.12054 17.3879 4.27785
4249 1 9.05566 15.6673 5.66131
4245 1 10.5857 16.5166 3.178
4247 2 9.09166 17.3641 4.45238
4259 1 13.5683 16.5152 3.16599
4263 1 12.0727 15.6628 5.68132
4261 2 12.079 17.3722 4.44979
4273 1 16.5453 16.5536 3.17213
4277 1 15.0267 15.6469 5.63719
4275 2 15.0503 17.3911 4.44109
4287 1 19.5038 16.5737 3.17001
4291 1 18.0682 15.686 5.61219
4289 2 18.0349 17.3998 4.4509
4301 1 22.4876 16.5624 3.12798
4305 1 21.0177 15.714 5.62425
4303 2 21.0066 17.4059 4.44082
4315 1 25.4804 16.5843 3.09123
4319 1 23.9986 15.6894 5.60377
4317 2 23.9874 17.4193 4.39094
4329 1 28.4576 16.4946 3.09528
4333 1 26.9831 15.6958 5.57293
4331 2 26.9801 17.4209 4.35311
4204 1 0.143037 19.0524 3.10998
4206 2 1.57077 19.882 4.30383
4208 1 1.61227 18.2387 5.56893
5607 1 0.171554 20.7946 5.59254
4218 1 3.15972 19.0825 3.15353
5621 5 3.13999 20.8296 5.50412
4220 2 4.69811 19.9124 4.33243
4222 1 4.62295 18.2532 5.62434
5635 1 6.06396 20.8297 5.67608
4232 1 6.09399 19.1325 3.07872
4234 6 7.61082 19.9692 4.27785
4236 1 7.6189 18.2056 5.75688
4246 1 9.09196 19.0216 3.1161
5649 1 9.09609 20.8462 5.71362
4248 6 10.5914 19.9692 4.27785
4250 1 10.5731 18.2133 5.70072
4260 1 12.118 19.0515 3.15625
5663 1 12.0938 20.8403 5.69419
4262 2 13.5707 19.958 4.45511
4264 1 13.5653 18.2414 5.69162
4274 1 15.0551 19.1081 3.19093
4276 2 16.5396 19.976 4.47739
4278 1 16.5453 18.2801 5.66419
5677 1 15.0694 20.8501 5.68061
4288 1 18.0212 19.1415 3.20544
4290 2 19.507 19.9883 4.4758
4292 1 19.5231 18.2632 5.70071
5691 1 18.0077 20.8661 5.71815
4302 1 20.9898 19.1396 3.18747
4316 1 23.9528 19.1477 3.1505
4304 2 22.4911 19.9946 4.44545
4306 1 22.5078 18.2695 5.64899
5705 1 21.0044 20.8436 5.70287
4330 1 26.8651 19.1523 3.09782
4318 2 25.4564 19.9975 4.40445
4320 1 25.4952 18.2711 5.60584
5719 1 23.9948 20.8586 5.68293
4332 6 28.4747 19.9692 4.27785
4334 1 28.4943 18.2724 5.58884
5733 1 26.991 20.8562 5.63126
5605 2 0.178389 22.5014 4.32301
5603 1 1.65923 21.5827 3.14904
5608 1 1.6936 23.3336 5.53387
5617 1 4.61541 21.6695 3.16714
5619 2 3.1387 22.5993 4.32015
5622 1 4.61436 23.3584 5.64527
5631 1 7.61863 21.7256 3.12091
5633 2 6.11513 22.5353 4.42099
5636 1 7.60839 23.4025 5.64737
5645 1 10.6036 21.7002 3.14518
5647 2 9.10514 22.5551 4.4229
5650 1 10.5967 23.4099 5.6627
5659 1 13.5534 21.6352 3.19284
5661 2 12.0855 22.5591 4.43806
5664 1 13.6043 23.4059 5.65314
5675 2 14.976 22.5082 4.37781
5673 1 16.5266 21.7224 3.23137
5678 5 16.5525 23.4109 5.50412
5687 1 19.5049 21.7078 3.21079
5689 2 18.0892 22.5236 4.41959
5692 1 19.4928 23.4143 5.70651
5701 1 22.4689 21.7168 3.2023
5703 2 21.0025 22.5712 4.48379
5706 1 22.5176 23.4114 5.72816
5715 1 25.425 21.7263 3.16215
5717 2 23.9713 22.5684 4.46024
5720 1 25.4734 23.4074 5.67944
5731 2 26.9399 22.5685 4.39887
5729 1 28.3049 21.6878 3.08389
5734 1 28.4593 23.3933 5.63985
7003 1 1.67752 26.7974 3.09806
7007 1 0.163333 25.9836 5.55202
5604 1 0.181782 24.2893 3.1205
5606 2 1.66171 25.0916 4.35391
5618 1 3.20259 24.2627 3.13278
7017 1 4.64451 26.8224 3.1413
7021 1 3.13502 25.9603 5.6083
5620 2 4.64141 25.1038 4.40418
5632 1 6.13772 24.2597 3.14564
7031 1 7.58534 26.8553 3.16199
7035 1 6.12428 25.9742 5.63367
5634 2 7.62012 25.1202 4.40958
5646 1 9.06945 24.2391 3.20143
7049 1 9.10608 25.9858 5.6308
5648 2 10.6099 25.139 4.42657
7045 1 10.616 26.9125 3.21079
7059 1 13.645 26.8667 3.18945
7063 1 12.0677 25.9779 5.62365
5660 1 12.0846 24.2784 3.26403
5662 2 13.5885 25.1256 4.43477
7073 1 16.5829 26.8623 3.21807
7077 1 15.1077 25.9538 5.66271
5674 1 15.1172 24.3051 3.23892
5676 2 16.5531 25.2105 4.42837
7087 1 19.5308 26.8546 3.22203
5688 1 18.03 24.2742 3.26076
7091 1 18.0316 25.9666 5.7327
5690 2 19.5203 25.1344 4.49381
5702 1 20.9956 24.2829 3.22313
7101 1 22.4919 26.8661 3.20988
5716 1 23.9506 24.2921 3.20353
7105 1 21.0264 25.9973 5.70559
5704 2 22.4943 25.1386 4.47934
7115 1 25.4576 26.8692 3.17987
5730 1 26.8853 24.2977 3.16444
7119 1 24.0025 26.0071 5.70197
5718 2 25.4642 25.1328 4.43734
7129 1 28.3797 26.8073 3.08364
7133 1 26.9871 25.9718 5.63783
5732 2 28.4416 25.1081 4.38487
7004 1 0.202239 29.3548 3.08339
7005 2 0.176682 27.6715 4.3554
7008 1 1.64808 28.5582 5.59984
7018 1 3.11069 29.3377 3.08255
7019 2 3.1405 27.6803 4.37739
7022 1 4.6234 28.5405 5.63613
7032 1 6.15233 29.3563 3.12192
7033 2 6.12905 27.6947 4.40157
7036 1 7.61009 28.5747 5.6456
7046 1 9.09709 29.4171 3.13484
7047 2 9.10749 27.7093 4.41341
7050 1 10.5843 28.582 5.66654
7060 1 12.1117 29.4333 3.16986
7061 2 12.1 27.7226 4.42891
7064 1 13.549 28.5829 5.62951
7074 1 15.0976 29.4253 3.20245
7075 2 15.082 27.7053 4.45619
7078 1 16.5884 28.5519 5.69259
7088 1 18.0653 29.433 3.2231
7089 2 18.0466 27.7133 4.49946
7092 1 19.5405 28.5668 5.7042
7102 1 21.0229 29.4445 3.214
7103 2 21.0292 27.7175 4.47936
7106 1 22.5266 28.5877 5.7276
7116 1 23.9951 29.4283 3.20383
7117 2 23.993 27.7198 4.4578
7120 1 25.5292 28.5761 5.62142
7131 2 26.9764 27.6009 4.46567
7130 5 26.9844 29.4339 3.092
7134 1 28.4576 28.5378 5.6388
11 1 0.146157 1.88399 8.14456
13 3 0.138906 0.187839 9.09988
9 2 1.66457 1.05043 6.8594
14 3 1.6396 2.78476 9.06331
25 1 3.13972 1.91871 8.12281
27 3 3.16901 0.207593 9.10268
23 2 4.6266 1.05307 6.85662
28 3 4.6175 2.789 9.09602
41 3 6.00478 0.278156 9.16568
39 1 6.0741 1.92772 8.1294
37 6 7.61082 1.03961 6.73038
42 3 7.61153 2.74233 9.05356
53 1 9.14855 1.9234 8.13168
55 3 9.22224 0.265744 9.15537
51 2 10.5864 1.03006 6.84211
56 3 10.62 2.77663 9.08153
67 1 12.0825 1.84567 8.1436
69 3 12.0676 0.142965 9.09011
65 2 13.5677 1.02972 6.83735
70 3 13.5706 2.75567 9.06079
81 1 15.0632 1.89847 8.10122
83 3 15.0655 0.177445 9.0624
79 2 16.5478 1.02964 6.82457
84 3 16.5375 2.76491 9.08351
95 1 18.0026 1.90548 8.12645
97 3 18.0476 0.154746 9.03206
93 6 19.533 1.03961 6.73038
98 3 19.5513 2.70914 9.04149
109 1 21.0292 1.93635 8.02876
111 7 21.0233 0.17918 8.97177
107 2 22.5394 1.04287 6.7803
112 7 22.5136 2.76048 8.97177
123 1 24.0298 1.88967 8.03703
125 3 24.0536 0.176626 8.98421
121 6 25.4941 1.03961 6.73038
126 3 25.52 2.73831 8.98984
137 1 27.0349 1.94739 8.02794
139 7 26.9844 0.17918 8.97177
135 2 28.498 1.09312 6.81844
140 3 28.4754 2.77539 9.02229
151 1 29.907 1.91531 8.00647
1413 3 0.157125 5.3211 9.02246
10 6 0.159437 3.62092 6.73038
12 1 1.70582 4.51156 8.11736
1427 3 3.1604 5.3641 9.09475
24 2 3.14342 3.63024 6.82702
26 1 4.63345 4.49794 8.11224
1441 3 6.12446 5.34726 9.0822
38 2 6.1123 3.63116 6.84687
40 1 7.60881 4.47881 8.11883
1455 3 9.07415 5.36318 9.09789
52 2 9.10154 3.62628 6.84691
54 1 10.5478 4.51176 8.1487
1469 3 12.0943 5.33788 9.04794
66 6 12.0816 3.62092 6.73038
68 1 13.6148 4.48934 8.12537
1483 3 15.0781 5.33279 9.09412
80 2 15.0713 3.61299 6.83519
82 1 16.5673 4.48409 8.11663
1497 3 18.0909 5.32795 9.04267
94 2 18.0444 3.60749 6.82794
96 1 19.5644 4.4175 8.10645
1511 3 21.0332 5.38055 9.00348
108 2 21.0392 3.62755 6.80958
110 1 22.5294 4.526 8.06487
1525 3 24.0155 5.38434 9.01715
122 2 24.0084 3.62589 6.79517
124 1 25.478 4.47367 8.05701
1539 3 26.9698 5.30498 9.04276
136 2 26.982 3.62384 6.77919
138 1 28.4637 4.48663 8.04951
1409 2 1.65422 6.21049 6.82251
1411 1 0.185722 7.02697 8.05458
1410 2 0.142637 8.79098 6.82173
1414 3 1.62442 7.89926 9.06177
1425 1 3.14045 7.07247 8.11101
1424 2 3.13823 8.78914 6.85899
1423 2 4.63446 6.21024 6.8438
1428 3 4.63396 7.91287 9.0819
1439 1 6.13912 7.0723 8.12801
1438 2 6.12566 8.79099 6.86977
1437 2 7.61635 6.19933 6.85343
1442 3 7.64201 7.91937 9.08638
1452 2 9.03902 8.73802 6.80103
1453 1 9.1198 7.06637 8.10633
1451 2 10.5916 6.20501 6.84048
1456 3 10.6066 7.79636 9.13513
1467 1 12.0795 7.06052 8.09069
1466 2 12.1752 8.7219 6.79512
1465 2 13.5768 6.18621 6.83513
1470 3 13.5737 7.88346 9.0745
1479 2 16.5556 6.19275 6.84288
1481 1 15.0314 7.01735 8.08834
1480 2 15.0749 8.76172 6.8523
1484 7 16.5525 7.92309 8.97177
1493 6 19.533 6.20222 6.73038
1495 1 18.0714 7.04424 8.09481
1494 2 18.0532 8.76073 6.83554
1498 3 19.5802 7.87725 9.03009
1508 2 20.9624 8.83096 6.89777
1507 2 22.5295 6.13432 6.87511
1509 1 21.0987 7.10012 8.04676
1512 3 22.5471 7.93361 9.04351
1521 2 25.4692 6.20351 6.77909
1523 1 24.003 7.08658 8.02433
1522 2 24.0556 8.83755 6.86106
1526 3 25.4852 7.93958 9.00299
1535 2 28.4564 6.20914 6.79467
1537 1 26.9679 7.00994 8.09835
1536 6 26.9844 8.78352 6.73038
1540 3 28.4266 7.95312 9.03102
1551 1 29.9147 7.11035 8.09577
1412 1 1.57497 9.61284 8.10357
2809 2 1.65588 11.359 6.85343
2827 7 3.13999 10.5044 8.97177
1426 1 4.62893 9.59075 8.0832
2823 2 4.63457 11.3696 6.87114
2841 7 6.12054 10.5044 8.97177
1440 1 7.68526 9.60943 8.09218
2837 2 7.61407 11.3653 6.86861
2855 3 9.04348 10.5318 9.13122
1454 5 10.5914 9.64396 7.91623
2851 2 10.5863 11.4626 6.80861
2869 7 12.0816 10.5044 8.97177
1468 1 13.6064 9.57876 8.08746
2865 2 13.5551 11.34 6.86767
1482 1 16.5641 9.66619 8.08252
2883 3 15.0638 10.4542 9.07128
2879 2 16.5624 11.3351 6.83291
1496 1 19.5279 9.62227 8.11427
2897 3 18.0406 10.4718 9.09452
2893 2 19.5346 11.3421 6.82818
1510 1 22.5159 9.6347 8.05294
2911 3 21.039 10.4567 9.0688
2907 2 22.4977 11.3463 6.79299
2925 3 23.9715 10.5196 9.04698
1524 1 25.4468 9.68386 8.08603
2921 2 25.4731 11.3803 6.78633
1538 1 28.4978 9.69117 8.10302
2939 3 26.9659 10.5209 9.02266
2935 2 28.4616 11.3856 6.78873
2811 1 0.131581 12.1416 8.10152
2814 7 1.64971 13.0857 8.97177
2810 6 0.159437 13.9461 6.73038
2812 1 1.69043 14.8776 8.08824
2825 1 3.14851 12.2217 8.02093
2824 2 3.13905 13.9503 6.82971
2828 7 4.63026 13.0857 8.97177
2826 1 4.59901 14.8656 8.0695
2839 1 6.16218 12.2465 8.09806
2838 2 6.10928 13.8754 6.935
2842 3 7.62368 13.1019 9.06983
2840 1 7.5538 14.8269 8.11759
2853 1 9.09485 12.1982 8.11879
2852 2 9.07086 13.9489 6.87402
2856 3 10.5634 13.0664 9.10097
2854 1 10.5174 14.767 8.12538
2867 1 12.0477 12.2566 8.10414
2866 2 12.0681 13.9427 6.88667
2870 3 13.5503 13.0521 9.08847
2868 1 13.599 14.7634 8.13064
2881 1 15.0361 12.183 8.12778
2884 3 16.5429 12.9972 9.10556
2880 2 15.0467 13.9167 6.87181
2882 1 16.5071 14.7259 8.20527
2895 1 18.0404 12.163 8.13022
2898 3 19.5392 13.0945 9.00484
2894 6 18.0427 13.9461 6.73038
2896 1 19.5587 14.9211 8.27105
2909 1 21.019 12.1529 8.10907
2912 3 22.4979 13.0794 9.0243
2908 6 21.0233 13.9461 6.73038
2910 1 22.5855 14.839 8.1422
2923 1 23.9938 12.2292 8.06469
2926 3 25.4871 13.0833 9.02912
2922 2 24.0071 13.9586 6.81645
2924 1 25.5108 14.8123 8.08222
2937 1 26.9746 12.2359 8.05264
2940 3 28.4543 13.1004 9.027
2936 2 26.9789 13.961 6.79578
2938 1 28.4627 14.8163 8.05686
4213 3 0.128801 15.652 8.98839
4209 2 1.63345 16.5271 6.80208
4227 3 3.13687 15.6957 9.08682
4225 1 3.10382 17.3715 8.09918
4223 2 4.54127 16.5758 6.89768
4239 1 6.0391 17.3651 8.07748
4241 3 6.06213 15.6837 9.08077
4237 2 7.66982 16.5846 6.96464
4255 3 9.05644 15.6318 9.10714
4253 1 9.12502 17.3506 8.15936
4251 2 10.5742 16.525 6.89244
4267 1 12.0163 17.4086 8.11643
4269 7 12.0816 15.667 8.97177
4265 2 13.5471 16.5134 6.90927
4281 1 15.0175 17.3382 8.18941
4283 3 15.0512 15.62 9.1361
4279 6 16.5525 16.5274 6.73038
4297 3 17.9716 15.6789 9.11054
4293 2 19.5482 16.5599 6.91248
4295 1 18.0519 17.4119 8.19995
4311 3 21.122 15.702 9.13662
4307 2 22.5343 16.5471 6.86218
4309 1 21.1053 17.3932 8.14152
4325 3 24.0617 15.6811 9.0959
4321 2 25.5079 16.5429 6.82188
4323 1 24.0514 17.3903 8.11321
4339 3 26.9948 15.6846 9.04157
4335 2 28.4861 16.5581 6.77889
4337 1 27.0129 17.4022 8.07351
4212 1 1.6053 19.9492 8.05842
4214 3 1.60361 18.2457 9.02786
5613 7 0.159437 20.8296 8.97177
5627 3 3.09051 20.7782 9.02398
4224 6 3.13999 19.1087 6.73038
4226 1 4.68333 20.0111 8.15951
4228 3 4.58462 18.2545 9.04989
4238 2 6.11107 19.1089 6.8966
5641 3 6.14502 20.8577 9.13469
4240 1 7.60557 20.0081 8.13987
4242 7 7.61082 18.2483 8.97177
4252 2 9.0765 19.0914 6.92114
5655 3 9.07545 20.8517 9.12612
4254 1 10.5763 19.9754 8.19169
4256 3 10.5755 18.243 9.13318
4266 2 12.0704 19.1021 6.91585
5669 3 12.0851 20.8362 9.12903
4268 1 13.5594 20.0022 8.14187
4270 7 13.5719 18.2483 8.97177
4280 2 15.0375 19.0967 6.91402
4282 1 16.4884 19.9087 8.17824
4284 3 16.5112 18.1884 9.12664
5683 3 15.0381 20.8286 9.12981
4294 2 18.0389 19.1234 6.92431
4296 1 19.5296 19.9817 8.09547
4298 7 19.533 18.2483 8.97177
5697 7 18.0427 20.8296 8.97177
4308 2 21.0279 19.1213 6.91439
4310 1 22.5787 19.953 8.13648
4312 3 22.5852 18.2468 9.10713
5711 7 21.0233 20.8296 8.97177
4322 2 24.0161 19.1212 6.86426
4324 1 25.5131 19.9728 8.09805
4326 3 25.5423 18.257 9.06666
5725 3 24.0506 20.7006 9.15941
4336 2 26.9972 19.1208 6.82814
4338 1 28.4869 19.9941 8.06346
4340 3 28.4947 18.2771 9.03421
5739 3 27.0021 20.819 9.06736
5609 2 1.54168 21.6878 6.88145
5614 3 1.6021 23.3758 9.01334
5625 1 3.04442 22.4704 8.03527
5623 2 4.70655 21.7085 6.93058
5628 7 4.63026 23.4109 8.97177
5639 1 6.14854 22.5359 8.11961
5637 2 7.61506 21.6826 6.87991
5642 3 7.60557 23.4013 9.1063
5653 1 9.06419 22.5361 8.12169
5651 2 10.5771 21.6909 6.90155
5656 7 10.5914 23.4109 8.97177
5667 1 12.1229 22.5232 8.13172
5665 2 13.5658 21.6804 6.88463
5670 3 13.597 23.3424 9.13567
5681 1 15.0867 22.5283 8.13395
5679 2 16.5483 21.5902 6.99933
5684 3 16.537 23.4015 9.13682
5695 1 18.0432 22.6151 8.15785
5693 2 19.5139 21.7041 6.93175
5698 3 19.5403 23.4184 9.14517
5709 1 21.0243 22.5935 8.16232
5707 2 22.4339 21.6522 6.87144
5723 5 24.0038 22.5505 7.91623
5721 2 25.5815 21.64 6.79885
5726 3 25.6167 23.4447 9.1537
5737 1 26.9436 22.5149 8.08338
5735 2 28.3948 21.7499 6.91923
5740 7 28.4747 23.4109 8.97177
7013 3 0.135794 25.9318 8.99881
5610 6 0.159437 24.2713 6.73038
5612 1 1.71609 25.1353 8.13537
7009 2 1.64711 26.8307 6.82243
7027 3 3.1743 26.0105 9.08976
5624 2 3.14032 24.2335 6.83512
5626 1 4.62753 25.1572 8.08837
7023 2 4.6227 26.8504 6.83832
7041 3 6.09279 25.9998 9.08157
5638 2 6.11071 24.2596 6.86719
5640 1 7.5986 25.1274 8.15034
7037 2 7.60376 26.8493 6.86705
7055 3 9.09117 25.9999 9.09719
5652 2 9.10297 24.2714 6.88123
5654 1 10.5891 25.1931 8.1207
7051 2 10.5784 26.8615 6.87923
7069 3 12.0858 26.0044 9.09823
5666 2 12.0799 24.2562 6.88658
5668 1 13.5567 25.0512 8.19851
7065 6 13.5719 26.8526 6.73038
5680 2 14.9955 24.2839 6.96165
7083 3 15.0489 25.9126 9.15241
5682 1 16.498 25.0774 8.12659
7079 2 16.5777 26.8327 6.94074
7097 7 18.0427 25.9922 8.97177
5694 2 18.1147 24.3167 7.00116
5696 1 19.58 25.1229 8.17973
7093 2 19.5436 26.8502 6.94146
7111 3 21.0456 25.9939 9.1476
5708 2 21.0272 24.2753 6.92897
5710 1 22.5033 25.1256 8.16382
7107 2 22.5318 26.8709 6.93703
7125 7 24.0038 25.9922 8.97177
5722 2 24.0138 24.3697 6.86962
5724 1 25.5712 25.0919 8.12499
7121 2 25.5145 26.8565 6.89453
7139 3 27.0333 25.9881 9.08249
5736 2 27.0116 24.2534 6.85507
5738 1 28.5123 25.1754 8.08379
7135 2 28.5014 26.8515 6.83941
7011 1 0.137594 27.6189 8.0157
7010 2 0.143992 29.4149 6.79928
7014 7 1.64971 28.5735 8.97177
7025 1 3.15738 27.6896 8.07565
7024 2 3.1154 29.4219 6.83263
7028 3 4.60309 28.5731 9.06186
7039 1 6.0673 27.6956 8.09612
7038 2 6.102 29.4358 6.8538
7042 7 7.61082 28.5735 8.97177
7053 1 9.07503 27.668 8.08477
7052 2 9.0795 29.4373 6.886
7056 7 10.5914 28.5735 8.97177
7067 1 12.0578 27.7231 8.16089
7066 2 12.0525 29.452 6.89401
7070 3 13.5852 28.5401 9.07126
7081 1 15.1691 27.6627 8.30135
7080 6 15.0622 29.4339 6.73038
7095 1 18.0886 27.7657 8.18893
7094 2 18.0793 29.4411 6.94808
7098 3 19.585 28.5792 9.16381
7108 2 20.9726 29.3754 6.87392
7109 1 21.0231 27.6953 8.16681
7112 7 22.5136 28.5735 8.97177
7126 3 25.5529 28.6026 9.10158
7122 2 24.1243 29.3898 6.83057
7123 1 24.0919 27.7875 8.0993
7136 2 27.0167 29.4178 6.84872
7137 1 27.0127 27.7104 8.12411
7140 3 28.5117 28.5634 9.07865
5712 3 22.3982 23.4885 9.20149
7084 3 16.6272 28.5957 9.19731
8401 7 0.159437 31.1548 2.03646
8415 7 3.13999 31.1548 2.03646
8429 7 6.12054 31.1548 2.03646
8443 3 9.12636 31.1355 2.16942
8457 3 12.12 31.1764 2.24794
8471 3 15.1255 31.1313 2.2187
8485 3 18.0776 31.1477 2.25516
8499 3 21.0162 31.161 2.24322
8513 3 23.9771 31.138 2.22852
8527 3 26.9621 31.257 2.12979
8402 3 1.68902 33.7533 2.0976
8404 1 0.189755 34.6305 3.02943
8416 3 4.65058 33.7968 2.11098
8430 7 7.61082 33.7361 2.03646
8444 3 10.5382 33.6691 2.14948
8458 3 13.6814 33.6555 2.20002
8472 7 16.5525 33.7361 2.03646
8486 3 19.4896 33.7051 2.2177
8500 3 22.5011 33.6895 2.20942
8514 7 25.4941 33.7361 2.03646
8528 3 28.4859 33.7433 2.124
9801 3 0.209284 36.3623 2.08631
9802 3 1.75173 38.8817 2.05989
9815 7 3.13999 36.3174 2.03646
9816 3 4.67618 38.9408 2.12726
9829 3 6.1523 36.3468 2.13292
9830 3 7.6653 38.8815 2.1492
9843 3 9.15797 36.2823 2.16451
9844 3 10.6396 38.8329 2.20857
9857 3 12.1143 36.3941 2.18414
9858 3 13.5785 38.84 2.2418
9871 7 15.0622 36.3174 2.03646
9872 3 16.603 38.8836 2.23345
9885 3 18.1095 36.3251 2.24074
9886 3 19.5568 38.8984 2.25406
9899 3 21.0394 36.4678 2.1725
9900 3 22.5293 38.918 2.25623
9913 7 24.0038 36.3174 2.03646
9914 3 25.4615 38.943 2.20048
9927 7 26.9844 36.3174 2.03646
9928 7 28.4747 38.8987 2.03646
11201 3 0.229788 41.5394 2.03363
11215 3 3.19003 41.4837 2.10401
11229 3 6.15328 41.5195 2.1243
11243 7 9.10109 41.48 2.03646
11257 7 12.0816 41.48 2.03646
11271 3 15.111 41.4533 2.20274
11285 3 18.1017 41.4668 2.2294
11299 3 21.0277 41.4778 2.23423
11313 3 24.0077 41.4736 2.22247
11327 7 26.9844 41.48 2.03646
11202 3 1.73159 44.0447 2.04041
11203 1 1.68816 42.3447 3.04457
11204 1 0.292777 44.9223 2.99774
11218 1 3.17255 44.9078 3.02503
11216 3 4.57296 43.9927 2.02449
11230 3 7.62883 44.07 2.14352
11244 7 10.5914 44.0613 2.03646
11258 3 13.6531 44.0424 2.17328
11272 3 16.617 44.0338 2.20176
11286 3 19.5659 44.0232 2.20842
11300 3 22.5152 44.0373 2.21104
11314 3 25.4907 44.0048 2.20456
11328 3 28.5065 44.0139 2.19313
12601 3 0.218871 46.6467 2.06279
12603 1 1.69143 47.5209 3.03621
12615 3 3.20444 46.6572 2.11519
12629 7 6.12054 46.6426 2.03646
12643 3 9.13994 46.5972 2.13632
12657 3 12.1456 46.5813 2.14924
12671 3 15.1137 46.5852 2.16443
12685 3 18.0748 46.5616 2.16951
12699 3 21.0441 46.5812 2.1746
12713 3 24.0209 46.5906 2.16173
12727 3 26.9959 46.5845 2.16788
12602 3 1.7316 49.251 2.09183
12604 1 0.160014 50.0696 2.95421
12616 3 4.68244 49.1746 2.07451
12618 1 3.2515 50.0678 3.04448
12630 3 7.63736 49.1597 2.11947
12644 7 10.5914 49.2239 2.03646
12658 3 13.6134 49.1952 2.14542
12672 7 16.5525 49.2239 2.03646
12686 3 19.5781 49.1811 2.12184
12700 3 22.5458 49.1579 2.12793
12714 3 25.4986 49.172 2.11459
12728 3 28.4692 49.1887 2.14617
14001 3 0.231361 51.8188 2.04859
14003 1 1.69582 52.7355 2.99485
14015 3 3.16927 51.7942 2.09333
14029 7 6.12054 51.8052 2.03646
14043 3 9.13474 51.7429 2.11052
14045 1 10.6726 52.5331 3.03694
14057 3 12.0328 51.6428 2.01337
14071 7 15.0622 51.8052 2.03646
14073 1 16.6142 52.5794 3.05447
14085 3 18.101 51.7948 2.09476
14087 1 19.5883 52.6474 3.04121
14099 7 21.0233 51.8052 2.03646
14113 3 24.0801 51.781 2.12826
14127 3 26.8881 51.7104 2.06096
14002 3 1.63753 54.3576 1.95187
15401 3 0.358689 56.8682 1.92801
14004 1 0.269947 55.2383 2.98949
14016 3 4.62932 54.3584 2.05444
14032 1 6.0465 55.2334 3.05327
15429 3 6.03639 56.8961 2.01447
14030 7 7.61082 54.3865 2.03646
14044 7 10.5914 54.3865 2.03646
14046 1 9.14529 55.3812 3.01393
15457 7 12.0816 56.9678 2.03646
14058 3 13.6447 54.5037 2.05173
14072 3 16.5732 54.3377 2.19712
14074 1 15.1026 55.3567 3.02323
14086 3 19.5182 54.3693 2.11365
15485 7 18.0427 56.9678 2.03646
14088 1 18.0617 55.2816 3.05055
14100 7 22.5136 54.3865 2.03646
15499 7 21.0233 56.9678 2.03646
14114 3 25.5336 54.3511 2.11186
15513 7 24.0038 56.9678 2.03646
14128 3 28.4541 54.4809 2.04119
15527 3 26.9663 56.9191 2.09209
15402 3 1.66962 59.5033 2.08465
15403 1 1.70375 57.7674 3.01092
15415 3 3.14172 57.0298 1.95805
15416 3 4.67819 59.4943 2.10149
15417 1 4.57959 57.7568 3.01719
15430 3 7.65489 59.5617 2.15743
15431 1 7.55199 57.7448 2.90317
15443 3 9.13995 57.0374 2.03094
15444 3 10.5884 59.6112 2.11986
15445 1 10.6229 57.8631 3.00841
15458 3 13.5908 59.6104 2.13278
15471 3 15.083 57.0643 2.07957
15472 3 16.5524 59.6106 2.13109
15486 3 19.5474 59.6048 2.13349
15500 3 22.5301 59.5851 2.13208
15514 3 25.5144 59.5704 2.13676
15515 1 25.5181 57.8334 3.04964
15528 3 28.4371 59.5399 2.13797
15529 1 28.4873 57.7556 2.97492
8403 1 1.67685 32.0821 3.10584
8405 2 0.175277 32.8955 4.29956
8407 1 0.145604 31.1317 5.49835
7006 2 1.66103 30.2772 4.31597
8417 1 4.66995 32.1532 3.11234
8419 2 3.15587 32.9034 4.3355
8421 1 3.14878 31.1474 5.55042
7020 6 4.63026 30.2944 4.27785
8433 2 6.1352 32.9066 4.36462