ITEM: TIMESTEP
0
ITEM: NUMBER OF ATOMS
81200
ITEM: BOX BOUNDS pp pp pp
2.2265280118230957e-01 2.9807684309484279e+02
2.1054291092898367e-01 2.9943716906324153e+02
0.0000000000000000e+00 4.9031656433928198e+01
ITEM: ATOMS id type x y z
1 3 0.26084 0.264198 2.11399
2 3 1.77109 2.85144 2.10349
15 3 3.22758 0.275347 2.12435
16 3 4.71564 2.83472 2.10003
29 7 6.21697 0.281382 2.03646
30 3 7.72091 2.86196 2.09422
43 3 9.18631 0.278678 2.09753
44 3 10.6783 2.8337 2.07815
57 3 12.1429 0.255987 2.08686
58 3 13.6494 2.82045 2.07339
59 1 13.6479 1.10329 3.03929
71 3 15.1561 0.280958 2.07437
72 3 16.6031 2.85686 2.06642
85 7 18.1311 0.281382 2.03646
86 3 19.5828 2.86182 2.05251
99 7 21.1097 0.281382 2.03646
100 7 22.5989 2.86092 2.03646
113 3 24.0765 0.422461 2.0134
114 3 25.5635 2.8847 2.00149
115 1 25.534 1.22927 3.0098
127 7 27.0668 0.281382 2.03646
128 3 28.5598 2.86802 2.03486
129 1 28.5671 1.17047 3.02352
1401 3 0.263244 5.43765 2.09835
1415 7 3.23843 5.44046 2.03646
1429 3 6.23144 5.45048 2.09026
32 1 6.21282 3.71786 3.03476
1443 3 9.18982 5.46437 2.07837
46 1 9.21154 3.74003 3.03619
1457 7 12.1741 5.44046 2.03646
60 1 12.1691 3.65827 3.0515
1471 3 15.1482 5.44175 2.06243
74 1 15.1198 3.72298 3.02938
1485 3 18.0968 5.41699 2.03725
88 1 18.0983 3.71125 3.02651
102 1 21.0154 3.71645 3.03634
1499 3 21.1243 5.44125 2.11137
1513 3 24.0882 5.42369 2.02196
116 1 24.1491 3.73377 3.01461
1527 3 27.0532 5.44411 2.02017
130 1 27.0562 3.72182 2.97985
144 1 30.007 3.75409 3.01914
1402 3 1.74866 8.05505 2.1014
1416 3 4.76619 8.03177 2.09578
1418 1 3.26539 8.86684 3.06362
1430 3 7.71663 8.04164 2.10151
1431 1 7.71081 6.31718 3.05798
1444 3 10.6643 8.03943 2.08899
1458 3 13.669 8.03229 2.08051
1460 1 12.1706 8.86655 3.05541
1459 1 13.7053 6.32812 3.05357
1472 3 16.6259 7.99133 2.04897
1474 1 15.1678 8.88629 3.03088
1473 1 16.6364 6.28674 3.03505
1488 1 18.0798 8.80762 3.03647
1486 3 19.623 8.03222 2.1091
1487 1 19.5692 6.27096 2.98849
1500 7 22.5989 8.02 2.03646
1502 1 21.1028 8.9474 3.01407
1501 1 22.655 6.28519 3.00047
1514 3 25.5681 8.02676 2.02136
1515 1 25.5644 6.30649 2.98305
1516 1 24.1223 8.91018 3.01568
1528 3 28.5402 8.0064 2.0242
1530 1 27.0576 8.83881 3.0039
1529 1 28.5295 6.29981 3.00585
2801 3 0.297137 10.6394 2.12616
2815 3 3.29204 10.5777 2.0889
2829 3 6.23573 10.6212 2.10781
2843 3 9.19497 10.625 2.10832
2857 3 12.161 10.5855 2.09444
2871 3 15.1224 10.6099 2.07672
2873 1 16.5754 11.5091 3.04466
2885 7 18.1311 10.5995 2.03646
2887 1 19.6643 11.5818 2.98898
2899 3 21.0844 10.6187 2.03693
2901 1 22.5888 11.4244 3.00496
2913 3 24.078 10.6046 2.02512
2915 1 25.515 11.5246 2.99424
2927 7 27.0668 10.5995 2.03646
2929 1 28.6068 11.434 3.03096
2802 7 1.74916 13.1791 2.03646
2816 3 4.76325 13.1907 2.12758
2830 3 7.6839 13.2022 2.12443
2844 3 10.6678 13.1983 2.10765
2858 7 13.6633 13.1791 2.03646
2872 3 16.6198 13.2171 2.07568
2886 3 19.6148 13.2667 2.03077
2888 1 18.1185 14.0663 3.0326
2902 1 21.0594 14.1199 3.04424
2900 7 22.5989 13.1791 2.03646
2914 3 25.5379 13.2333 2.02449
2916 1 24.1017 14.1114 3.02644
2930 1 27.0142 14.0682 3.00893
2928 7 28.556 13.1791 2.03646
4201 7 0.259885 15.7586 2.03646
4215 7 3.23843 15.7586 2.03646
4229 3 6.23061 15.7712 2.13075
4243 3 9.17396 15.7812 2.13323
4257 3 12.1439 15.7805 2.11709
4271 3 15.1597 15.7886 2.10004
4285 3 18.118 15.7994 2.09206
4287 1 19.598 16.6667 3.06323
4299 3 21.0727 15.8222 2.06889
4301 1 22.5832 16.653 3.02639
4313 3 24.0784 15.8144 2.05084
4315 1 25.5742 16.6687 3.00556
4327 3 27.0388 15.7722 2.03779
4329 1 28.5414 16.5764 3.01291
5601 3 0.281656 20.8574 2.10633
4202 3 1.75989 18.3378 2.12371
5615 3 3.24542 20.8823 2.12189
4216 3 4.73767 18.3227 2.12675
5629 3 6.20712 20.9271 2.13498
4230 3 7.68544 18.3015 2.11114
5643 3 9.20973 20.8932 2.15239
4244 3 10.6748 18.3468 2.14733
5657 3 12.1667 20.88 2.13817
4258 3 13.6883 18.3285 2.10257
5671 3 15.1618 20.9305 2.14542
4272 3 16.6429 18.3721 2.11741
5685 3 18.1011 20.9631 2.14741
4286 3 19.5951 18.3914 2.10953
5699 3 21.0912 20.9564 2.12768
4300 3 22.5676 18.3873 2.08939
5713 3 24.0544 20.9662 2.10969
4314 3 25.5322 18.3986 2.05997
4316 1 24.0575 19.2389 3.05886
5727 3 27.0169 20.9636 2.08335
4330 1 27.0047 19.2509 3.03819
4328 7 28.556 18.3382 2.03646
5602 7 1.74916 23.4972 2.03646
5616 3 4.75757 23.4658 2.12607
5630 3 7.7132 23.4771 2.1314
5644 7 10.6848 23.4972 2.03646
5658 7 13.6633 23.4972 2.03646
5672 3 16.658 23.5282 2.15614
5686 3 19.6014 23.5266 2.15895
5700 3 22.5728 23.5229 2.13953
5714 3 25.5217 23.5329 2.1122
5728 7 28.556 23.4972 2.03646
7001 3 0.291468 26.0523 2.08722
7015 3 3.27682 26.0491 2.10367
7029 3 6.2289 26.0613 2.12771
7043 7 9.19551 26.0768 2.03646
7057 7 12.1741 26.0768 2.03646
7071 3 15.2009 26.0883 2.15195
7085 3 18.145 26.068 2.16466
7099 3 21.1044 26.0851 2.15455
7113 3 24.0617 26.0916 2.14263
7127 3 26.9823 26.0722 2.0763
7129 1 28.4693 26.9054 3.01979
7002 3 1.78437 28.6039 2.0918
7004 1 0.30201 29.4499 3.06254
7016 3 4.74535 28.6144 2.11193
7030 3 7.70744 28.6439 2.13574
7044 3 10.7076 28.668 2.15019
7058 3 13.701 28.6623 2.15948
7072 3 16.663 28.6734 2.16377
7086 3 19.6279 28.6631 2.16349
7100 3 22.5876 28.6699 2.15538
7114 3 25.4489 28.6094 2.06734
7128 3 28.6552 28.6046 2.08516
3 1 1.73812 1.14035 3.08005
5 2 0.264986 1.99741 4.34828
7 1 0.277886 0.323027 5.5763
8 1 1.76096 2.86969 5.57156
17 1 4.68959 1.14837 3.10068
19 2 3.24567 2.00098 4.34113
21 1 3.25281 0.284766 5.58148
22 1 4.74479 2.86701 5.55856
31 1 7.74817 1.17057 3.0906
33 2 6.22135 1.99421 4.32037
35 1 6.24092 0.27393 5.57145
36 1 7.71296 2.87478 5.54183
45 1 10.6744 1.12951 3.06528
47 2 9.20781 2.00492 4.32795
49 1 9.18237 0.266537 5.57974
50 1 10.6611 2.84653 5.51674
61 2 12.1695 1.98346 4.30373
63 1 12.1685 0.270551 5.54708
64 1 13.6877 2.84166 5.50822
73 1 16.5956 1.16818 3.06597
75 2 15.1358 1.99895 4.31251
77 1 15.1501 0.272416 5.54081
78 1 16.645 2.8578 5.53858
87 1 19.6288 1.20091 3.08042
89 2 18.1289 1.99468 4.29685
91 1 18.1429 0.269539 5.51683
92 1 19.6221 2.86077 5.52723
101 1 22.6346 1.1118 3.10169
103 2 21.1072 2.00477 4.29513
105 1 21.1283 0.259964 5.52666
106 1 22.6016 2.83247 5.54339
117 2 24.0846 2.00128 4.28685
119 1 24.0665 0.240287 5.49851
120 1 25.5789 2.82177 5.49008
131 2 27.0476 2.07695 4.17343
133 5 27.0668 0.281382 5.50412
134 1 28.5196 2.82239 5.47486
147 1 29.9861 0.291375 5.46798
4 1 0.325786 3.74398 3.087
1407 1 0.265217 5.44666 5.55833
6 2 1.76387 4.5927 4.32305
18 1 3.2495 3.67882 3.09018
1421 1 3.2498 5.44971 5.53668
20 2 4.73582 4.58761 4.31597
1435 1 6.22706 5.44574 5.55262
34 2 7.71236 4.59096 4.31207
1449 1 9.2051 5.44665 5.54525
48 2 10.6876 4.58857 4.291
1463 1 12.1776 5.46937 5.48438
62 2 13.6597 4.58147 4.28399
1477 1 15.1606 5.43329 5.5329
76 2 16.6435 4.57977 4.3094
1491 1 18.115 5.42656 5.50287
90 2 19.6026 4.57256 4.29031
1505 1 21.1296 5.44385 5.54586
104 6 22.5989 4.58062 4.27785
1519 1 24.0859 5.4795 5.51676
118 2 25.569 4.57593 4.26994
1533 1 27.0441 5.43331 5.48786
132 2 28.549 4.57817 4.26994
1547 1 30.0049 5.41213 5.47047
1404 1 0.295536 8.92966 3.08682
1403 1 1.69784 6.35155 3.0763
1405 2 0.255058 7.1742 4.32125
1408 1 1.76129 8.03056 5.55748
1417 1 4.78325 6.33267 3.07779
1419 2 3.24934 7.16328 4.31999
1422 1 4.73934 8.02667 5.56324
1432 1 6.23574 8.90376 3.07457
1433 2 6.22812 7.17096 4.32753
1436 1 7.71258 8.02578 5.55695
1446 1 9.19654 8.90676 3.07415
1445 1 10.6397 6.33958 3.06944
1447 2 9.20344 7.17434 4.325
1450 1 10.6962 8.03944 5.57221
1461 2 12.1725 7.14972 4.30863
1464 1 13.6771 8.01426 5.52929
1475 2 15.1622 7.15798 4.30178
1478 1 16.6544 8.01741 5.54618
1489 2 18.1212 7.15096 4.29493
1492 1 19.6423 8.03797 5.55002
1503 6 21.1097 7.16016 4.27785
1506 5 22.5989 8.02 5.50412
1517 2 24.1475 7.14283 4.19035
1520 1 25.5043 8.00404 5.44263
1531 2 27.0474 7.16017 4.25548
1534 1 28.5588 8.00838 5.47122
2803 1 1.83651 11.4006 3.06828
2807 1 0.27061 10.5867 5.57632
1406 2 1.77458 9.7431 4.33465
2817 1 4.7463 11.467 3.08154
2821 1 3.25738 10.6091 5.58445
1420 2 4.74535 9.74904 4.34571
2831 1 7.71358 11.482 3.08669
2835 1 6.22904 10.6142 5.59028
1434 2 7.71777 9.76141 4.34426
2845 1 10.6934 11.4745 3.06653
2849 1 9.21508 10.6074 5.58303
1448 2 10.6906 9.74908 4.33963
2859 1 13.6416 11.4105 3.08243
2863 1 12.1654 10.5953 5.59044
1462 2 13.6606 9.73967 4.3157
2877 1 15.1564 10.5968 5.53345
1476 2 16.6422 9.74407 4.29388
2891 1 18.126 10.6057 5.5166
1490 6 19.6204 9.7397 4.27785
2905 1 21.1468 10.588 5.52204
1504 2 22.6013 9.81034 4.18833
2919 1 24.0626 10.5757 5.47724
1518 2 25.5617 9.75272 4.23119
2933 1 27.0478 10.636 5.42719
1532 2 28.5448 9.74432 4.24295
2804 1 0.251185 14.0704 3.09517
2805 6 0.259885 12.3192 4.27785
2806 2 1.76412 14.9131 4.33015
2808 1 1.7816 13.2068 5.58458
2819 2 3.26591 12.3269 4.34908
2818 1 3.29619 14.013 3.12012
2820 2 4.6705 14.8662 4.28535
2822 1 4.75383 13.2122 5.58727
2832 1 6.22007 14.069 3.12085
2833 2 6.2259 12.3386 4.35883
2834 2 7.76628 14.8683 4.29217
2836 1 7.69236 13.2145 5.57733
2846 1 9.18303 14.0522 3.07963
2860 1 12.119 14.0783 3.09291
2847 2 9.19081 12.3282 4.34559
2848 2 10.6706 14.9143 4.35379
2850 1 10.6783 13.1927 5.55861
2861 2 12.1734 12.322 4.32584
2862 2 13.6542 14.9012 4.33088
2864 1 13.658 13.1747 5.53674
2874 1 15.1797 14.0889 3.07985
2875 2 15.1387 12.329 4.30457
2876 2 16.6389 14.9148 4.32184
2878 1 16.6456 13.1759 5.53349
2889 2 18.1275 12.3323 4.28188
2890 2 19.6114 14.9269 4.30731
2892 1 19.6229 13.1845 5.51938
2903 2 21.1106 12.3491 4.26605
2904 2 22.5888 14.9256 4.27926
2906 1 22.593 13.184 5.47819
2917 2 24.0696 12.337 4.2515
2918 2 25.5687 14.9234 4.26387
2920 1 25.5671 13.1818 5.48449
2931 2 27.057 12.3186 4.23917
2932 2 28.5469 14.9028 4.24696
2934 1 28.5477 13.1866 5.46069
4205 2 0.261104 17.4664 4.34263
4207 1 0.236781 15.7636 5.54654
4203 1 1.76108 16.6588 3.11967
4219 2 3.24634 17.4696 4.33069
4221 1 3.2639 15.7603 5.54032
4217 1 4.78951 16.6394 3.13534
4231 1 7.69461 16.6157 3.13347
4233 2 6.20566 17.5544 4.31105
4235 5 6.21697 15.7586 5.50412
4249 1 9.14989 15.765 5.5867
4245 1 10.6659 16.6263 3.10573
4247 2 9.17218 17.4713 4.37642
4259 1 13.6559 16.6128 3.07263
4261 2 12.1725 17.4716 4.36567
4263 1 12.169 15.7618 5.59404
4273 1 16.6378 16.6501 3.07577
4275 2 15.1482 17.4864 4.35167
4277 1 15.1466 15.7593 5.56198
4289 2 18.1231 17.5034 4.34761
4291 1 18.1329 15.7668 5.55446
4303 2 21.0985 17.506 4.32689
4305 1 21.1084 15.7754 5.53743
4317 2 24.0789 17.5062 4.29643
4319 1 24.0855 15.7742 5.5081
4331 2 27.0684 17.5036 4.26833
4333 1 27.0669 15.7751 5.48831
4204 1 0.236588 19.1474 3.07577
5607 1 0.278094 20.8859 5.56282
4206 2 1.67109 19.9759 4.26459
4208 1 1.71523 18.3324 5.52632
4218 1 3.25093 19.1775 3.10167
5621 5 3.23843 20.9177 5.50412
4220 2 4.79393 20.001 4.28069
4222 1 4.75104 18.3288 5.53065
4232 1 6.22152 19.1977 3.08138
4246 1 9.14156 19.1588 3.08036
5635 1 6.18058 20.8997 5.58067
4234 2 7.69667 20.0469 4.37337
4236 1 7.67918 18.3109 5.60783
5649 1 9.17096 20.9199 5.61394
4248 6 10.6848 20.0579 4.27785
4250 1 10.6709 18.3115 5.62288
4260 1 12.2151 19.1521 3.07568
5663 1 12.1991 20.9321 5.61235
4262 2 13.6703 20.0539 4.36701
4264 1 13.6646 18.3368 5.60171
4274 1 15.1498 19.2053 3.09556
5677 1 15.1712 20.9451 5.58807
4276 2 16.6356 20.0825 4.37114
4278 1 16.6397 18.3504 5.58511
4288 1 18.1162 19.2377 3.0999
5691 1 18.1044 20.9576 5.61667
4290 2 19.6023 20.0801 4.37206
4292 1 19.6137 18.3532 5.59101
4302 1 21.089 19.2321 3.08187
5705 1 21.0977 20.9301 5.60272
4304 2 22.5888 20.0834 4.34825
4306 1 22.5955 18.3558 5.54876
5719 1 24.0869 20.9449 5.59278
4318 2 25.5608 20.0853 4.31822
4320 1 25.5806 18.3547 5.51754
5733 1 27.1049 20.9256 5.52924
4332 2 28.48 20.0421 4.21742
4334 1 28.569 18.3823 5.48162
5605 2 0.279258 22.597 4.30537
5603 1 1.7538 21.6781 3.11412
5608 1 1.7701 23.4337 5.53423
5617 1 4.70803 21.7572 3.11108
5619 2 3.24208 22.6889 4.26973
5622 1 4.71263 23.4413 5.5963
5631 1 7.71222 21.761 3.09781
5633 2 6.21023 22.6151 4.36367
5636 1 7.70503 23.4843 5.58996
5645 1 10.6967 21.7893 3.06456
5647 2 9.19905 22.6336 4.35832
5650 1 10.695 23.4921 5.59187
5659 1 13.6483 21.7315 3.10532
5661 2 12.1817 22.6481 4.3584
5664 1 13.7039 23.4933 5.5694
5675 2 15.0743 22.6025 4.28736
5673 1 16.6223 21.818 3.13263
5678 5 16.6419 23.4972 5.50412
5687 1 19.6046 21.8 3.10936
5689 2 18.1868 22.6153 4.31941
5692 1 19.5873 23.5012 5.60893
5701 1 22.5762 21.8059 3.10641
5703 2 21.1004 22.6592 4.38659
5706 1 22.6109 23.4967 5.63564
5715 1 25.547 21.8148 3.0779
5717 2 24.0736 22.6553 4.37144
5720 1 25.566 23.4947 5.59726
5729 1 28.4882 21.75 3.1001
5731 2 27.0585 22.6497 4.32243
5734 1 28.5752 23.4715 5.53097
7003 1 1.77823 26.8947 3.06642
7007 1 0.271722 26.0454 5.544
5604 1 0.280672 24.3819 3.09806
5606 2 1.76175 25.18 4.32657
7017 1 4.74132 26.9114 3.09681
5618 1 3.29732 24.3525 3.09074
7021 1 3.23896 26.0456 5.56731
5620 2 4.73905 25.1883 4.35882
5632 1 6.23059 24.3425 3.0957
7031 1 7.67643 26.9456 3.11547
7035 1 6.22238 26.0544 5.58729
5634 2 7.71365 25.2026 4.35661
5646 1 9.15728 24.318 3.14262
7049 1 9.20308 26.0624 5.57581
7045 1 10.7042 26.9928 3.15364
5648 2 10.6932 25.2135 4.35651
7059 1 13.7331 26.954 3.12661
7063 1 12.1884 26.0662 5.58278
5660 1 12.1741 24.3665 3.19022
5662 2 13.6821 25.2141 4.36581
7073 1 16.6727 26.9544 3.12871
7077 1 15.1788 26.0433 5.60845
5674 1 15.2106 24.3975 3.15071
5676 2 16.6553 25.2989 4.3265
7087 1 19.6232 26.9441 3.1289
5688 1 18.1263 24.3664 3.16049
7091 1 18.1244 26.05 5.63678
5690 2 19.6148 25.2217 4.39873
5702 1 21.0951 24.3715 3.12847
7101 1 22.5856 26.9528 3.12298
7105 1 21.1166 26.0823 5.61459
5704 2 22.5892 25.2249 4.38962
7115 1 25.5517 26.9578 3.09787
5730 1 26.9937 24.389 3.0865
5716 1 24.0548 24.3786 3.11658
7119 1 24.0917 26.0931 5.61678
5718 2 25.561 25.2206 4.35588
7133 1 27.0732 26.0635 5.56359
5732 2 28.5444 25.2042 4.31137
7005 2 0.280107 27.773 4.32051
7008 1 1.75417 28.6472 5.56631
7018 1 3.25541 29.4569 3.07401
7019 2 3.24888 27.7768 4.33933
7022 1 4.7289 28.6539 5.57212
7032 1 6.21182 29.4675 3.10066
7033 2 6.22224 27.785 4.35725
7036 1 7.71376 28.6523 5.60233
7046 1 9.19933 29.504 3.10188
7047 2 9.20547 27.7888 4.36646
7050 1 10.6904 28.6495 5.62021
7060 1 12.2012 29.5147 3.11638
7061 2 12.1921 27.7914 4.37434
7064 1 13.681 28.642 5.6179
7074 1 15.1758 29.5203 3.1419
7075 2 15.1718 27.791 4.3945
7078 1 16.6552 28.6462 5.62831
7088 1 18.1487 29.5242 3.13983
7089 2 18.1441 27.7945 4.40252
7092 1 19.6253 28.649 5.61835
7102 1 21.1089 29.5317 3.13131
7103 2 21.1179 27.8035 4.39245
7106 1 22.6114 28.6717 5.64456
7116 1 24.0821 29.5129 3.12391
7117 2 24.082 27.806 4.37499
7120 1 25.6143 28.6639 5.54228
7131 2 27.0616 27.6987 4.38514
7130 5 27.0668 29.5162 3.092
7134 1 28.5402 28.6708 5.54136
11 1 0.268954 2.04033 8.07278
13 3 0.267333 0.322888 9.03486
9 2 1.77137 1.16915 6.81304
14 3 1.77248 2.88122 9.03148
25 1 3.26623 2.02391 8.07116
27 3 3.30054 0.314433 9.05221
23 2 4.75111 1.15101 6.79282
28 3 4.77208 2.87754 9.01339
41 3 6.15966 0.359394 9.08194
39 1 6.24411 2.00237 8.03646
37 2 7.71367 1.23802 6.72103
42 3 7.72387 2.86163 9.01224
53 1 9.19407 1.99604 8.02697
55 3 9.28734 0.348452 9.06521
51 2 10.6784 1.13333 6.77358
56 3 10.6829 2.86559 8.98205
67 1 12.1715 1.95009 8.07137
69 3 12.1584 0.251556 9.02467
65 2 13.6631 1.13555 6.76976
70 3 13.6608 2.86224 8.98539
81 1 15.159 2.00666 8.0325
83 3 15.1555 0.290442 9.00184
79 2 16.6453 1.13598 6.76234
84 3 16.6547 2.8633 8.98995
95 1 18.1377 1.98698 8.0305
97 3 18.1304 0.264507 8.99078
93 2 19.6292 1.13562 6.75397
98 3 19.6313 2.8312 8.9997
109 1 21.0695 2.0153 7.96073
111 7 21.1097 0.281382 8.97177
107 2 22.6238 1.1311 6.71903
112 7 22.5989 2.86092 8.97177
123 1 24.1346 1.96626 7.96291
125 3 24.1288 0.267552 8.94019
121 2 25.5121 1.15712 6.7636
126 3 25.5998 2.83962 8.93514
137 1 27.0611 2.01109 7.92289
139 7 27.0668 0.281382 8.97177
135 2 28.5722 1.17362 6.74376
140 3 28.5208 2.84798 8.93014
151 1 29.9721 1.99959 7.93411
1413 3 0.284333 5.44559 9.01882
10 2 0.268557 3.73599 6.79469
12 1 1.77215 4.59091 8.05213
1427 3 3.25838 5.45101 9.01998
24 2 3.25679 3.73335 6.7875
26 1 4.74665 4.59655 8.0499
1441 3 6.23392 5.4503 9.02155
38 2 6.22805 3.7311 6.78367
40 1 7.71709 4.58544 8.05386
1455 3 9.1859 5.46731 9.02916
52 2 9.19995 3.72881 6.77552
54 1 10.6488 4.61126 8.0685
1469 3 12.1893 5.44409 8.97261
66 6 12.1741 3.72077 6.73038
68 1 13.7133 4.59778 8.05408
1483 3 15.1775 5.44403 9.01922
80 2 15.1667 3.72061 6.76484
82 1 16.6648 4.5923 8.04128
1497 3 18.1795 5.44642 8.97192
94 2 18.1389 3.71382 6.76064
96 1 19.6516 4.52758 8.04247
1511 3 21.1201 5.49513 8.93471
108 2 21.1168 3.72245 6.7499
110 1 22.6093 4.63184 7.99364
1525 3 24.0968 5.48726 8.94542
122 2 24.0891 3.7134 6.73161
124 1 25.5543 4.56685 7.98692
1539 3 27.0463 5.39873 8.97095
136 2 27.0483 3.70251 6.70654
138 1 28.5321 4.56938 7.97534
1411 1 0.306257 7.13552 8.02232
1410 2 0.259862 8.8939 6.77927
1409 2 1.76274 6.30654 6.78167
1414 3 1.75199 8.0108 9.01596
1425 1 3.25282 7.16949 8.05456
1424 2 3.24884 8.88771 6.8013
1423 2 4.74361 6.30908 6.78435
1428 3 4.74662 8.01231 9.02295
1439 1 6.24896 7.17322 8.06385
1438 2 6.23271 8.88983 6.80412
1437 2 7.72212 6.30289 6.78492
1442 3 7.75276 8.02155 9.0196
1452 2 9.14329 8.83971 6.72778
1453 1 9.22696 7.16882 8.03438
1451 2 10.6933 6.30905 6.7652
1456 3 10.7112 7.90506 9.06209
1467 1 12.181 7.16698 8.01518
1466 2 12.2746 8.82833 6.71682
1465 2 13.6751 6.29335 6.75984
1470 3 13.6741 7.99574 8.9961
1481 1 15.1308 7.12731 8.0109
1480 2 15.1726 8.8718 6.77014
1479 2 16.6509 6.30269 6.76597
1484 7 16.6419 8.02 8.97177
1495 1 18.1648 7.15964 8.01783
1494 2 18.1473 8.87385 6.75094
1493 6 19.6204 6.30031 6.73038
1498 3 19.671 8.00143 8.94954
1508 2 21.053 8.93888 6.81236
1509 1 21.1825 7.20917 7.96756
1507 2 22.6132 6.23473 6.79898
1512 3 22.6327 8.0426 8.96112
1523 1 24.0848 7.18489 7.9449
1522 2 24.1402 8.93005 6.7754
1521 2 25.5488 6.29274 6.70107
1526 3 25.569 8.03286 8.92442
1537 1 27.0488 7.09946 8.01903
1536 6 27.0668 8.87985 6.73038
1535 2 28.533 6.29195 6.71935
1540 3 28.5056 8.042 8.95559
1551 1 29.9964 7.19729 8.02722
2813 3 0.232692 10.6018 9.01862
2809 2 1.76695 11.4633 6.80189
1412 1 1.69671 9.72036 8.05028
2827 7 3.23843 10.5995 8.97177
2823 2 4.7427 11.4654 6.80865
1426 1 4.741 9.68845 8.02125
2841 7 6.21697 10.5995 8.97177
2837 2 7.71972 11.4631 6.79918
1440 1 7.79489 9.70985 8.02264
2855 3 9.15778 10.6301 9.05733
2851 2 10.6897 11.5647 6.72993
1454 5 10.6848 9.7397 7.91623
2869 7 12.1741 10.5995 8.97177
2865 2 13.6555 11.4476 6.78051
1468 1 13.7087 9.68953 8.00615
2883 3 15.1654 10.573 8.98465
2879 2 16.6617 11.4506 6.7433
1482 1 16.6643 9.78593 7.99389
2897 3 18.1408 10.612 8.98854
2893 2 19.6316 11.4627 6.73998
1496 1 19.6232 9.74113 8.02228
2911 3 21.1327 10.5962 8.95939
2907 2 22.5903 11.4491 6.70414
1510 1 22.604 9.74026 7.9642
2925 3 24.0644 10.61 8.96358
2921 2 25.5613 11.4656 6.69722
1524 1 25.5349 9.77178 7.9977
2939 3 27.0524 10.607 8.9381
2935 2 28.5449 11.4691 6.70414
1538 1 28.5843 9.77533 8.01984
2811 1 0.248743 12.2965 8.0306
2810 2 0.267712 14.0493 6.79373
2812 1 1.75632 14.9518 8.02329
2814 7 1.74916 13.1791 8.97177
2825 1 3.26135 12.3175 7.96605
2824 2 3.23781 14.0423 6.77979
2826 1 4.70643 14.9506 8.00786
2828 7 4.7277 13.1791 8.97177
2839 1 6.2723 12.3398 8.03366
2838 2 6.21397 13.9673 6.87139
2840 1 7.66147 14.9193 8.04809
2842 3 7.73498 13.1961 9.0029
2853 1 9.20462 12.297 8.04538
2852 2 9.17367 14.0466 6.79975
2854 1 10.6246 14.8672 8.04514
2856 3 10.6744 13.1682 9.02309
2867 1 12.1564 12.3622 8.02013
2866 2 12.1709 14.0451 6.80032
2868 1 13.7116 14.8676 8.038
2870 3 13.659 13.1607 9.00235
2881 1 15.1437 12.2986 8.03518
2880 2 15.155 14.0257 6.77561
2882 1 16.66 14.8661 8.03671
2884 3 16.6482 13.1428 8.99159
2895 1 18.1485 12.3212 8.01244
2894 2 18.1421 14.0373 6.76325
2896 1 19.6392 14.9067 8.04273
2898 3 19.6414 13.1716 8.9793
2909 1 21.1187 12.3151 7.99449
2908 2 21.1161 14.042 6.74373
2910 1 22.6182 14.8867 8.00394
2912 3 22.6086 13.1661 8.96452
2923 1 24.0862 12.3162 7.9768
2922 2 24.0885 14.0395 6.72087
2924 1 25.5861 14.893 7.98817
2926 3 25.576 13.17 8.94534
2937 1 27.0593 12.3201 7.96493
2936 2 27.0618 14.0419 6.7073
2938 1 28.5437 14.8959 7.97387
2940 3 28.5351 13.1819 8.94679
4211 1 0.227238 17.4875 8.03449
4213 3 0.259765 15.7667 8.99564
4209 2 1.73625 16.6156 6.76101
4225 1 3.21562 17.4526 8.04785
4227 3 3.23616 15.7689 9.02195
4223 2 4.65167 16.6558 6.83093
4239 1 6.14877 17.4495 7.99612
4241 3 6.1705 15.7761 9.01225
4237 2 7.76409 16.6631 6.88295
4253 1 9.22888 17.4453 8.07567
4255 3 9.16543 15.7305 9.03065
4251 2 10.6749 16.6226 6.81117
4267 1 12.1237 17.5031 8.03148
4269 7 12.1741 15.7586 8.97177
4265 2 13.6584 16.6101 6.81689
4281 1 15.1769 17.4125 8.05179
4283 3 15.1838 15.709 9.02682
4279 2 16.643 16.6072 6.79639
4295 1 18.0981 17.4449 8.05206
4297 3 18.1343 15.7335 9.01301
4293 2 19.6271 16.6275 6.79528
4309 1 21.1749 17.4567 8.03604
4311 3 21.1493 15.7444 8.99594
4307 2 22.6109 16.6226 6.76089
4323 1 24.1229 17.4644 8.01726
4325 3 24.1064 15.7412 8.97416
4321 2 25.5881 16.6233 6.73211
4337 1 27.0876 17.479 7.98891
4339 3 27.0695 15.76 8.9541
4335 2 28.5636 16.626 6.70534
5613 7 0.259885 20.9177 8.97177
4210 2 0.228443 19.1799 6.75705
4212 1 1.72602 20.0378 8.01825
4214 3 1.7298 18.3361 8.99041
5627 3 3.21246 20.8616 8.98581
4224 6 3.23843 19.198 6.73038
4226 1 4.7922 20.0933 8.09873
4228 3 4.70441 18.335 8.98656
5641 3 6.26213 20.9305 9.06865
4238 2 6.2139 19.1916 6.80291
4240 1 7.71401 20.0893 8.05448
4242 7 7.70624 18.3382 8.97177
5655 3 9.18026 20.9276 9.05056
4252 2 9.18177 19.1897 6.8359
4254 1 10.6876 20.0672 8.11268
4256 3 10.6819 18.3329 9.05043
5669 3 12.1985 20.9277 9.04745
4266 2 12.1755 19.1958 6.83302
4268 1 13.6688 20.0932 8.05497
4270 7 13.6633 18.3382 8.97177
5683 3 15.1487 20.9213 9.03924
4280 2 15.1457 19.1861 6.82081
4282 1 16.5964 19.9968 8.08717
4284 3 16.6263 18.2803 9.04414
5697 7 18.1311 20.9177 8.97177
4294 2 18.13 19.2017 6.82084
4296 1 19.6195 20.0576 7.9914
4298 7 19.6204 18.3382 8.97177
5711 7 21.1097 20.9177 8.97177
4308 2 21.1125 19.1996 6.81133
4310 1 22.6563 20.0253 8.04034
4312 3 22.6502 18.3154 9.00559
5725 3 24.1227 20.7704 9.07311
4322 2 24.0984 19.2018 6.77161
4324 1 25.59 20.0516 8.01242
4326 3 25.6112 18.332 8.97494
5739 3 27.0788 20.8984 8.98171
4336 2 27.0805 19.2031 6.73604
4338 1 28.5629 20.0721 7.97829
4340 3 28.5667 18.3564 8.95138
5611 1 0.236112 22.6637 8.01004
5609 2 1.65466 21.785 6.84753
5614 3 1.73021 23.4596 9.00059
5625 1 3.16243 22.5576 8.00402
5623 2 4.80594 21.7987 6.8887
5628 7 4.7277 23.4972 8.97177
5639 1 6.25643 22.6139 8.06274
5637 2 7.7148 21.7616 6.80491
5642 3 7.71545 23.4754 9.04943
5653 1 9.17078 22.6166 8.05465
5651 2 10.6928 21.7827 6.83093
5656 7 10.6848 23.4972 8.97177
5667 1 12.2328 22.615 8.05002
5665 2 13.6718 21.7715 6.79877
5670 3 13.7072 23.4562 9.03412
5681 1 15.1915 22.6213 8.04308
5679 2 16.6499 21.681 6.90502
5684 3 16.64 23.4945 9.04755
5695 1 18.1375 22.7015 8.06041
5693 2 19.6074 21.7884 6.83283
5698 3 19.6333 23.501 9.052
5709 1 21.1145 22.6745 8.0665
5707 2 22.5229 21.7336 6.77742
5712 3 22.4877 23.5679 9.10787
5723 5 24.0882 22.6374 7.91623
5721 2 25.6617 21.7275 6.71991
5726 3 25.6993 23.524 9.06979
5737 1 27.0268 22.5954 7.99913
5735 2 28.4946 21.8227 6.82416
5740 7 28.556 23.4972 8.97177
7013 3 0.254198 26.0316 8.99279
5610 2 0.266697 24.3277 6.75985
7009 2 1.74986 26.9122 6.78593
5612 1 1.76467 25.1861 8.05134
7027 3 3.2415 26.067 9.0191
5624 2 3.23769 24.3129 6.79255
7023 2 4.72405 26.9197 6.8019
5626 1 4.72178 25.2314 8.04227
7041 3 6.19164 26.0687 9.03435
5638 2 6.20997 24.3382 6.81578
7037 2 7.70611 26.9252 6.81959
5640 1 7.69983 25.2041 8.09886
7055 3 9.19758 26.0692 9.04464
5652 2 9.20316 24.3489 6.82059
7051 2 10.6899 26.9299 6.82494
5654 1 10.6912 25.263 8.06139
7069 3 12.1831 26.0586 9.05963
5666 2 12.1825 24.3443 6.81222
7065 2 13.6813 26.9176 6.82972
5668 1 13.6595 25.1859 8.08917
5680 2 15.0956 24.3787 6.87697
7083 3 15.1529 26.0318 9.05618
7079 2 16.6578 26.9174 6.84908
5682 1 16.5964 25.1732 8.04136
7097 7 18.1311 26.0768 8.97177
5694 2 18.2063 24.4028 6.90591
7093 2 19.6276 26.9318 6.85107
5696 1 19.6693 25.2047 8.08511
7111 3 21.1313 26.073 9.05983
5708 2 21.118 24.3588 6.83526
7107 2 22.6167 26.9545 6.85092
5710 1 22.5895 25.2078 8.07411
7125 7 24.0882 26.0768 8.97177
5722 2 24.1012 24.4541 6.78223
7121 2 25.5977 26.9428 6.81506
5724 1 25.6503 25.1743 8.04588
7139 3 27.1089 26.071 9.00797
5736 2 27.0874 24.3437 6.78295
7135 2 28.5738 26.9374 6.77905
5738 1 28.5866 25.2559 8.00978
7011 1 0.253849 27.7075 7.99031
7010 2 0.256777 29.5071 6.77556
7014 7 1.74916 28.6563 8.97177
7025 1 3.25967 27.7629 8.03357
7024 2 3.22533 29.5108 6.79025
7028 3 4.70725 28.641 9.02225
7039 1 6.17123 27.7669 8.0533
7038 2 6.20883 29.5131 6.80821
7042 7 7.70624 28.6563 8.97177
7053 1 9.18559 27.7391 8.03567
7052 2 9.19241 29.5074 6.84468
7056 7 10.6848 28.6563 8.97177
7067 1 12.2254 27.7529 8.07534
7066 2 12.1778 29.4938 6.85386
7070 3 13.6761 28.6114 9.07643
7081 1 15.1792 27.768 8.12041
7080 2 15.168 29.5016 6.86424
7084 3 16.6612 28.6402 9.08456
7095 1 18.1587 27.8429 8.10158
7094 2 18.1496 29.5181 6.86618
7098 3 19.6582 28.6516 9.07688
7108 2 21.0541 29.4555 6.79178
7109 1 21.1019 27.7753 8.08087
7112 7 22.5989 28.6563 8.97177
7123 1 24.1716 27.8718 8.01715
7122 2 24.2072 29.4748 6.751
7126 3 25.6289 28.6867 9.02489
7140 3 28.5841 28.647 9.01279
7137 1 27.0903 27.794 8.05056
7136 2 27.1035 29.5108 6.76581
8401 7 0.259885 31.2359 2.03646
8415 7 3.23843 31.2359 2.03646
8429 7 6.21697 31.2359 2.03646
8443 3 9.26547 31.2337 2.1619
8457 3 12.2088 31.2464 2.17218
8471 3 15.1654 31.2407 2.18503
8485 3 18.1509 31.2441 2.18123
8499 3 21.0985 31.2512 2.16602
8513 3 24.0629 31.2243 2.1523
8527 3 27.0478 31.293 2.08408
8529 1 28.5474 32.0701 3.06129
8402 3 1.78355 33.8333 2.08165
8404 1 0.288881 34.7131 3.01855
8416 3 4.74614 33.8422 2.10229
8430 7 7.70624 33.8154 2.03646
8444 3 10.6769 33.7764 2.13179
8458 3 13.7289 33.7649 2.15504
8472 7 16.6419 33.8154 2.03646
8486 3 19.5701 33.7938 2.14455
8500 3 22.5909 33.7742 2.13496
8514 7 25.5775 33.8154 2.03646
8528 3 28.5793 33.7829 2.0879
9801 3 0.301974 36.4462 2.07801
9802 3 1.84081 38.9648 2.05101
9815 7 3.23843 36.3949 2.03646
9816 3 4.76351 39.0159 2.1048
9829 3 6.24323 36.4144 2.10643
9830 3 7.7494 38.9562 2.11566
9843 3 9.24901 36.3614 2.12341
9844 3 10.7224 38.9153 2.15977
9857 3 12.2006 36.4818 2.12454
9858 3 13.6636 38.9282 2.18374
9871 7 15.1526 36.3949 2.03646
9872 3 16.686 38.9712 2.17282
9885 3 18.191 36.4119 2.17331
9886 3 19.6411 38.9812 2.18675
9899 3 21.1236 36.549 2.10242
9900 3 22.6166 38.997 2.1868
9913 7 24.0882 36.3949 2.03646
9914 3 25.5506 39.0189 2.1348
9927 7 27.0668 36.3949 2.03646
9928 7 28.556 38.9745 2.03646
11201 3 0.318679 41.6232 2.04424
11215 3 3.27112 41.5697 2.09556
9818 1 3.25393 39.8521 3.06132
11229 3 6.2339 41.5991 2.09856
9832 1 6.26825 39.8691 3.04717
11243 7 9.19551 41.554 2.03646
11257 7 12.1741 41.554 2.03646
11271 3 15.1986 41.5401 2.15042
11285 3 18.1821 41.5537 2.17276
11299 3 21.1097 41.5613 2.17078
11313 3 24.0908 41.5536 2.15794
11327 7 27.0668 41.554 2.03646
11202 3 1.81164 44.1479 2.09265
11203 1 1.77835 42.4255 3.05512
11204 1 0.337606 45.0291 3.04204
11216 3 4.67103 44.0947 2.0381
11218 1 3.29074 45.0152 3.06191
11230 3 7.71104 44.15 2.11137
11244 7 10.6848 44.1336 2.03646
11258 3 13.7346 44.1278 2.12587
11272 3 16.6974 44.1187 2.15479
11286 3 19.6424 44.1103 2.15632
11300 3 22.5924 44.1221 2.15514
11314 3 25.5688 44.0876 2.14631
11328 3 28.585 44.0907 2.13675
12601 3 0.312719 46.7251 2.05498
12603 1 1.77847 47.5925 3.04423
12615 3 3.27217 46.7299 2.09124
12629 7 6.21697 46.7131 2.03646
12643 3 9.22151 46.6794 2.10651
12657 3 12.224 46.6693 2.11386
12671 3 15.1909 46.6779 2.12572
12685 3 18.1463 46.6528 2.13033
12699 3 21.1152 46.6694 2.1318
12713 3 24.0958 46.6752 2.11488
12727 3 27.0739 46.6662 2.11961
12602 3 1.81506 49.323 2.1022
12604 1 0.244972 50.1292 2.97795
12616 3 4.76514 49.2329 2.08346
12618 1 3.33875 50.1282 3.05811
12630 3 7.71808 49.2455 2.10326
12644 7 10.6848 49.2926 2.03646
12658 3 13.6828 49.288 2.11508
12672 7 16.6419 49.2926 2.03646
12686 3 19.6375 49.2771 2.09918
12700 3 22.6178 49.2426 2.09329
12714 3 25.5761 49.2515 2.07694
12716 1 24.1004 50.1281 3.04663
12728 3 28.5495 49.2678 2.10813
12730 1 27.0338 50.1169 3.03784
14001 3 0.320849 51.8779 2.07151
14003 1 1.77662 52.8119 3.01329
14015 3 3.24367 51.858 2.1146
14029 7 6.21697 51.8722 2.03646
14043 3 9.2284 51.8245 2.0875
14045 1 10.7189 52.6472 3.06373
14057 3 12.1235 51.7686 2.04888
14071 7 15.1526 51.8722 2.03646
14085 3 18.1282 51.9286 2.13879
14087 1 19.674 52.7302 3.03104
14099 7 21.1097 51.8722 2.03646
14113 3 24.1594 51.8543 2.09886
14127 3 26.9697 51.7847 2.02958
15401 3 0.408272 56.9561 1.97862
14002 3 1.6872 54.4526 2.00243
14004 1 0.301384 55.3348 3.0522
14016 3 4.70691 54.4312 2.06392
14032 1 6.13174 55.303 3.05496
15429 3 6.13641 56.9709 2.02378
14030 7 7.70624 54.4517 2.03646
14044 7 10.6848 54.4517 2.03646
14046 1 9.2257 55.3821 3.05631
15457 7 12.1741 57.0313 2.03646
14058 3 13.7357 54.5172 2.06893
15471 3 15.1837 57.0445 2.11633
14072 3 16.6752 54.4338 2.1275
15485 7 18.1311 57.0313 2.03646
14086 3 19.6142 54.4436 2.08802
14088 1 18.1555 55.3344 3.0419
15499 7 21.1097 57.0313 2.03646
14100 7 22.5989 54.4517 2.03646
14102 1 21.0853 55.2818 3.06398
15513 7 24.0882 57.0313 2.03646
14114 3 25.6196 54.4136 2.08437
15527 3 27.0572 56.9668 2.06015
14128 3 28.5405 54.5331 2.02752
15402 3 1.76072 59.5522 2.07145
15403 1 1.79188 57.8343 3.03018
15415 3 3.23776 57.0897 1.99372
15416 3 4.74094 59.5458 2.05535
15417 1 4.69761 57.8436 3.04207
15430 3 7.74978 59.5997 2.1099
15431 1 7.61994 57.8276 2.95667
15443 3 9.21017 57.0734 2.08049
15444 3 10.6872 59.6354 2.10619
15445 1 10.7256 57.895 3.0093
15458 3 13.6887 59.6346 2.12116
15472 3 16.647 59.6374 2.11864
15486 3 19.6354 59.6506 2.10885
15500 3 22.6208 59.6394 2.10164
15514 3 25.614 59.6327 2.10659
15515 1 25.6055 57.8884 3.00484
15528 3 28.54 59.5876 2.13656
15529 1 28.5674 57.8 2.96298
8405 2 0.278316 32.9753 4.29368